
2.9375973
2.7011647
2.7475665
2.6806142
2.637106
2.5615425
2.6993852
2.6291518
2.3274639
2.7236214
2.5818362
2.4447544
2.4566839
2.3823006
2.510697
2.5065491
2.4829848
2.450026
2.3616562
2.6094584
2.5261278
2.5317156
2.4573479
2.459824
2.4726288
2.333681
2.4211035
2.465761
2.4460466
2.418213
2.397225
2.5213327
2.3721285
2.341859
2.4375234
2.4680567
2.4598362
2.38546
2.4212768
2.3438742
2.3936958
2.4348478
2.3300152
2.480147
2.385098
2.4246821
2.2876198
2.2751825
2.394506
2.5014472
2.493105
2.3988242
2.247717
2.2677724
2.3066905
2.3597827
2.2466848
2.2729344
2.357555
2.4756806
2.2321398
2.3425472
2.2820208
2.3979387
2.4195483
2.3897674
2.3087487
2.3908935
2.2726688
2.2942214
2.2581348
2.13233
2.2992887
2.3086267
2.1990783
2.3093112
2.3094702
2.0496697
2.145872
2.094527
2.3386009
2.3177567
2.3101788
2.2767735
2.3679268
2.2170074
2.3437786
2.2112596
2.3983252
2.1119552
2.2825518
2.330666
2.260021
2.1895623
2.2679534
2.3812542
2.1020672
2.1668918
2.2888727
2.2524214
2.2714713
2.3570251
2.2978659
2.1027992
2.210733
2.1347446
2.4104357
2.4058428
2.2007928
2.3250604
2.2301378
2.2666965
2.3552008
2.3834138
2.1512308
2.2156515
2.3339105
2.3231864
2.215438
2.248506
2.3386197
2.0805225
2.10014
2.1985998
2.0029755
2.1043277
2.1906524
2.1357768
2.144923
2.1102946
2.2745109
2.1590085
2.26517
2.2873325
2.1141298
2.1436515
2.0925019
2.256096
2.0953665
2.1381557
2.172623
2.2285988
2.1126745
2.239182
2.2290864
2.113503
2.2235744
2.348146
2.043686
2.212317
2.283431
2.1933253
2.1965275
2.1220155
2.1710644
2.027832
2.1372743
2.1961477
2.009687
2.2088566
2.278059
2.2060738
2.1498919
2.2133477
2.030872
1.9908321
2.0497444
2.0288057
2.13852
2.1873407
2.1161199
2.0409734
2.264358
2.219427
2.2096412
2.1230798
2.3388133
2.1838808
2.2033463
2.3019197
2.1545868
2.0753672
2.1326022
2.1964417
2.0810184
2.2998939
2.1709003
2.150576
2.165053
2.3889375
2.1543765
2.0844822
2.2447307
2.2068505
2.0756378
2.190129
2.1696744
2.0247188
2.230093
2.1196322
2.1573024
2.047754
2.1156511
2.2962875
2.0938716
2.1868348
2.154326
2.1286569
2.1782372
2.0978239
2.192073
2.1189096
2.072716
2.2476401
2.2286959
2.1721616
2.084993
2.267848
2.2836738
2.2248769
2.260311
2.2396421
1.9802687
2.215738
2.1844983
2.2846043
2.145577
2.0946064
2.204328
2.0804183
2.0935252
2.1896176
2.1588945
2.19856
2.1269627
2.2433658
2.143876
2.0701756
2.1790853
2.0718648
2.1346471
2.2689676
2.2014709
2.1268146
2.1527722
2.0908077
2.21622
2.1712704
2.0613918
2.1033134
2.1780486
2.01352
2.0260854
2.096181
2.0201526
2.150186
2.1122725
2.0052052
2.138228
2.1058927
2.1292503
2.090758
2.045138
2.1100287
2.0741112
2.2473402
2.2103772
2.1269479
2.162923
2.0728545
2.0447888
2.094176
2.028679
2.240078
2.2267318
2.1124592
2.073762
2.1215513
2.104446
2.0124414
2.1066973
2.1934767
2.2280738
2.1769538
2.2276914
1.9674189
2.020694
2.2130158
2.021123
1.9128065
2.2395148
2.220675
2.0702548
2.0987391
2.1503644
2.302551
2.1173491
2.280177
2.0963085
2.177621
2.1589098
2.1127787
2.1456022
1.985411
2.0990577
2.1563945
2.023591
2.1579208
2.1487517
2.202483
2.0789526
2.229189
1.965034
2.1547077
2.0730739
2.0574274
2.213306
2.1738186
2.1057734
2.0197363
2.2086215
2.0718796
2.176311
2.1306515
2.168293
2.0675976
2.2264242
2.1100605
2.1145015
2.0651422
2.300625
1.9981754
2.1404617
2.0574768
2.2217026
2.08076
2.1108704
2.1184692
2.0564394
2.1651168
2.0124817
2.142386
2.263452
2.165442
2.1411567
2.173728
2.230082
2.0912404
2.152329
2.1732926
2.1827738
2.0915349
2.1393926
2.1129434
2.1378202
2.24944
2.164256
2.0259676
2.219173
2.214499
2.0156178
2.1260788
2.1131885
1.9648634
2.049014
2.2145982
2.0614223
2.2012758
2.1207974
2.1133418
2.0851026
2.0962687
2.1485765
2.1627593
2.1642666
1.9684204
2.1058764
2.0563807
2.1333308
2.240953
2.045665
2.029643
2.1055608
2.032486
2.1369882
2.097962
2.1300766
2.3220482
2.1994603
1.9986933
2.1998851
2.0718305
2.0854921
2.1406045
2.0721307
2.1684823
2.1150064
2.210625
2.152242
2.2615652
2.0379395
2.0929909
2.134617
2.111457
2.0199194
2.114537
2.0173907
2.1662984
1.9877367
1.9284196
2.2248883
2.2558892
2.1703644
2.1258926
1.9630593
2.1511183
1.9869307
2.0709953
2.0780602
2.1305532
2.0745053
2.104651
2.2107432
1.9434595
2.188956
2.0198512
2.078434
2.206196
2.2469406
2.0838873
2.123054
2.0787098
2.214676
2.158514
1.9534885
2.1247485
2.0899706
2.009008
2.186898
2.1470718
2.0546849
2.1249318
2.1123028
2.019987
2.1362624
2.0982156
2.2181244
2.0317504
2.0775561
2.0529952
1.8970907
1.9786098
2.0272121
2.3039083
2.0607877
2.035262
2.0691037
2.10925
2.0007231
2.091498
2.1487293
1.9409125
2.1682034
2.351353
2.0611289
2.1449337
2.089327
2.071256
2.15344
1.989926
2.1119983
2.1227012
2.2160275
2.1323009
2.097134
2.140851
2.1312861
2.0853696
2.094556
2.16295
2.1853728
2.0867524
2.26284
2.03364
2.0187097
2.129095
2.2289543
2.0502117
2.0252652
2.1660826
2.1921933
2.0722303
2.1044037
2.1714332
2.0781584
2.2838438
2.2354088
2.0611331
2.1322005
2.1440487
2.7837787
2.7853248
2.8982918
2.9120016
2.5156374
2.4327402
2.4576895
2.415822
2.3894458
2.501803
2.3844543
2.440533
2.4967093
2.4493203
2.5846877
2.6601605
2.3710735
2.4176679
2.4249573
2.4036312
2.296258
2.474992
2.292656
2.4173918
2.4044774
2.3952465
2.3253598
2.462208
2.356993
2.3266625
2.2258492
2.3272674
2.320554
2.3234682
2.3549497
2.4163659
2.398189
2.233922
2.2619886
2.318184
2.2411628
2.345757
2.1710615
2.085002
2.246179
2.2055643
2.2121506
2.266633
2.2820244
2.2688007
2.1752176
2.1645887
2.222283
2.2522597
2.301005
2.2431748
2.3159404
2.2320104
2.2846355
2.2581353
2.2190437
2.2107177
2.1790872
2.1542554
2.293686
2.2564058
2.1770573
2.1587029
2.2001634
2.4054606
2.1630936
2.2142453
2.1330247
2.1039095
2.0112357
2.1646261
2.19937
2.3078265
2.3667035
2.406774
2.318415
2.1190696
2.2457056
2.0925999
2.1639776
2.1517148
2.0131617
2.1679513
2.1065009
2.0763552
2.1964638
2.1727161
2.2150135
2.074552
2.1620855
2.1282675
2.215145
2.1121223
2.0882878
2.0878162
2.2551885
2.1389909
2.2096598
2.1448069
2.253993
2.1960194
2.163721
2.2345195
2.0853462
2.1822743
2.0883832
2.224506
2.2161145
2.1452913
2.104702
2.1444805
2.0626884
2.0327864
2.0528648
2.1612217
2.160008
2.075832
2.1298041
2.1037097
2.0875378
2.1515346
2.2342901
2.0697708
2.1144753
1.9568784
2.022571
2.1949358
2.0323362
2.087007
2.1048174
2.1471596
2.252663
2.1529722
2.249117
2.1097245
1.995897
2.056672
2.3157725
1.9792628
2.1310658
2.0901706
2.0742097
2.0440526
2.147695
2.065947
2.2379317
2.331029
2.0478125
2.2118332
2.0316272
2.1705985
2.0676637
1.9642725
2.196708
2.0543606
2.0157309
2.1835408
2.0533857
2.2314646
2.1636813
2.096843
2.2247286
2.0249605
2.151367
2.0988958
2.1060278
2.2203097
2.1710694
2.0777037
2.1039777
2.2646089
2.3041503
2.019938
2.0959582
2.0735059
2.0931072
2.1533592
2.1658664
2.0610662
2.03148
2.056437
1.9981985
2.1247444
2.1279092
1.9860299
2.1899164
2.0325446
2.177256
2.0842834
2.0933118
2.052432
2.1570153
1.9442103
1.9684575
2.1913977
2.151925
2.1753645
2.1746826
2.0763268
2.0709395
2.0665398
2.1522899
2.1315908
2.127644
2.0832677
2.1287808
2.2174733
2.142494
2.311452
2.0861359
2.0535846
2.1746252
2.0677533
2.1020794
2.0058663
2.1671908
2.3430383
2.1045957
2.0409765
2.0658677
1.9972684
2.1097102
1.9256326
2.0143762
2.0913846
1.9982357
2.289649
2.115851
1.9576116
2.2031164
2.1903389
1.9552484
2.0140748
2.0720878
2.163168
2.015144
2.0088568
1.9965872
2.0473897
2.0298305
2.0755928
2.1819491
2.0046024
2.0052524
2.0669208
2.1168113
2.0200472
2.0390863
1.9801605
2.1272378
2.1935096
2.0270681
2.1924195
2.0697207
2.0438337
2.0550156
2.0523562
2.0826812
2.135855
2.080298
2.0094337
2.0848365
2.044355
2.162941
2.0495708
2.0245314
2.082482
2.0244958
2.1141763
2.0661423
2.0541544
2.097856
2.240351
2.1026213
2.1386805
2.1762393
1.997808
2.008533
1.9407201
2.1603036
2.0299811
1.956701
2.1672978
2.1618462
2.050713
1.9396691
1.9063241
2.1041188
2.1143312
2.0512714
2.1732974
2.1293082
2.2219372
2.1284451
2.084415
2.1649492
2.1291294
2.0251536
1.980438
2.0989573
2.086069
2.0779805
1.9748486
2.0488653
2.1681104
2.0407417
2.1006045
1.9791671
2.1456232
2.0258422
2.0728698
1.9945551
2.0197434
2.0842533
2.1628723
1.9694769
2.0480936
2.077876
2.0419903
2.0644662
2.2179646
2.1651177
2.2174296
1.9356191
1.9906018
2.0772986
2.1342096
2.0145435
1.9143581
2.146447
2.0668957
2.175946
2.0408604
2.1313825
2.1252718
2.3405862
2.029305
2.092166
1.8864973
2.0972245
1.9841833
2.037794
2.0149336
2.002738
2.218462
1.9632125
1.9204713
1.9707397
2.0747867
1.9803889
1.9486686
2.0330253
2.0357919
1.9649508
1.935807
2.117538
2.0214696
2.0561812
2.0166106
2.268328
2.113361
2.0689986
2.0530891
2.0123658
2.1281009
2.1097617
2.0674438
2.0537004
2.118824
2.0834358
2.0617466
2.197321
2.1332362
2.0429368
2.1337159
1.9918932
1.9482691
1.9073122
1.9808002
1.8484461
2.1545053
2.131532
2.1544046
1.8775558
2.1459484
2.0924563
2.2719574
1.9868191
1.9815625
2.118884
2.1077456
2.0535476
2.1357079
2.0748782
2.164
2.1297681
2.103949
2.1556792
2.2148767
2.1019382
2.115179
1.9887087
2.0904806
2.1696763
2.2097282
2.0920155
2.1212285
2.04895
1.9107262
2.0706856
2.141002
2.1314173
2.015472
2.1117873
2.1052494
2.052382
2.0923223
2.0642943
2.1738515
1.9165344
2.0418253
2.1769242
1.9565363
1.9602554
1.9501588
2.0141363
2.1960158
1.9139093
2.0420103
2.0129473
2.0787425
2.048078
1.9746349
2.1453052
1.8980749
2.0038412
2.3059568
2.2262273
2.001361
2.0430987
2.117002
2.0245402
2.0370107
2.046175
1.981107
1.9169776
2.1011086
2.0336187
2.1417496
1.8470716
2.0783472
1.8791482
1.9973973
1.985522
2.2081048