
2.9375973
2.7011647
2.7475665
2.6806142
2.637106
2.5615425
2.6993852
2.6291518
2.3274639
2.7236214
2.5818362
2.4447544
2.4566839
2.3823006
2.510697
2.5065491
2.4829848
2.450026
2.3616562
2.6094584
2.5261278
2.5317156
2.4573479
2.459824
2.4726288
2.333681
2.4211035
2.465761
2.4460466
2.418213
2.397225
2.5213327
2.3721285
2.341859
2.4375234
2.4680567
2.4598362
2.38546
2.4212768
2.3438742
2.3936958
2.4348478
2.3300152
2.480147
2.385098
2.4246821
2.2876198
2.2751825
2.394506
2.5014472
2.493105
2.3988242
2.247717
2.2677724
2.3066905
2.3597827
2.2466848
2.2729344
2.357555
2.4756806
2.2321398
2.3425472
2.2820208
2.3979387
2.4195483
2.3897674
2.3087487
2.3908935
2.2726688
2.2942214
2.2581348
2.13233
2.2992887
2.3086267
2.1990783
2.3093112
2.3094702
2.0496697
2.145872
2.094527
2.3386009
2.3177567
2.3101788
2.2767735
2.3679268
2.2170074
2.3437786
2.2112596
2.3983252
2.1119552
2.2825518
2.330666
2.260021
2.1895623
2.2679534
2.3812542
2.1020672
2.1668918
2.2888727
2.2524214
2.2714713
2.3570251
2.2978659
2.1027992
2.210733
2.1347446
2.4104357
2.4058428
2.2007928
2.3250604
2.2301378
2.2666965
2.3552008
2.3834138
2.1512308
2.2156515
2.3339105
2.3231864
2.215438
2.248506
2.3386197
2.0805225
2.10014
2.1985998
2.0029755
2.1043277
2.1906524
2.1357768
2.144923
2.1102946
2.2745109
2.1590085
2.26517
2.2873325
2.1141298
2.1436515
2.0925019
2.256096
2.0953665
2.1381557
2.172623
2.2285988
2.1126745
2.239182
2.2290864
2.113503
2.2235744
2.348146
2.043686
2.212317
2.283431
2.1933253
2.1965275
2.1220155
2.1710644
2.027832
2.1372743
2.1961477
2.009687
2.2088566
2.278059
2.2060738
2.1498919
2.2133477
2.030872
1.9908321
2.0497444
2.0288057
2.13852
2.1873407
2.1161199
2.0409734
2.264358
2.219427
2.2096412
2.1230798
2.3388133
2.1838808
2.2033463
2.3019197
2.1545868
2.0753672
2.1326022
2.1964417
2.0810184
2.2998939
2.1709003
2.150576
2.165053
2.3889375
2.1543765
2.0844822
2.2447307
2.2068505
2.0756378
2.190129
2.1696744
2.0247188
2.230093
2.1196322
2.1573024
2.047754
2.1156511
2.2962875
2.0938716
2.1868348
2.154326
2.1286569
2.1782372
2.0978239
2.192073
2.1189096
2.072716
2.2476401
2.2286959
2.1721616
2.084993
2.267848
2.2836738
2.2248769
2.260311
2.2396421
1.9802687
2.215738
2.1844983
2.2846043
2.145577
2.0946064
2.204328
2.0804183
2.0935252
2.1896176
2.1588945
2.19856
2.1269627
2.2433658
2.143876
2.0701756
2.1790853
2.0718648
2.1346471
2.2689676
2.2014709
2.1268146
2.1527722
2.0908077
2.21622
2.1712704
2.0613918
2.1033134
2.1780486
2.01352
2.0260854
2.096181
2.0201526
2.150186
2.1122725
2.0052052
2.138228
2.1058927
2.1292503
2.090758
2.045138
2.1100287
2.0741112
2.2473402
2.2103772
2.1269479
2.162923
2.0728545
2.0447888
2.094176
2.028679
2.240078
2.2267318
2.1124592
2.073762
2.1215513
2.104446
2.0124414
2.1066973
2.1934767
2.2280738
2.1769538
2.2276914
1.9674189
2.020694
2.2130158
2.021123
1.9128065
2.2395148
2.220675
2.0702548
2.0987391
2.1503644
2.302551
2.1173491
2.280177
2.0963085
2.177621
2.1589098
2.1127787
2.1456022
1.985411
2.0990577
2.1563945
2.023591
2.1579208
2.1487517
2.202483
2.0789526
2.229189
1.965034
2.1547077
2.0730739
2.0574274
2.213306
2.1738186
2.1057734
2.0197363
2.2086215
2.0718796
2.176311
2.1306515
2.168293
2.0675976
2.2264242
2.1100605
2.1145015
2.0651422
2.300625
1.9981754
2.1404617
2.0574768
2.2217026
2.08076
2.1108704
2.1184692
2.0564394
2.1651168
2.0124817
2.142386
2.263452
2.165442
2.1411567
2.173728
2.230082
2.0912404
2.152329
2.1732926
2.1827738
2.0915349
2.1393926
2.1129434
2.1378202
2.24944
2.164256
2.0259676
2.219173
2.214499
2.0156178
2.1260788
2.1131885
1.9648634
2.049014
2.2145982
2.0614223
2.2012758
2.1207974
2.1133418
2.0851026
2.0962687
2.1485765
2.1627593
2.1642666
1.9684204
2.1058764
2.0563807
2.1333308
2.240953
2.045665
2.029643
2.1055608
2.032486
2.1369882
2.097962
2.1300766
2.3220482
2.1994603
1.9986933
2.1998851
2.0718305
2.0854921
2.1406045
2.0721307
2.1684823
2.1150064
2.210625
2.152242
2.2615652
2.0379395
2.0929909
2.134617
2.111457
2.0199194
2.114537
2.0173907
2.1662984
1.9877367
1.9284196
2.2248883
2.2558892
2.1703644
2.1258926
1.9630593
2.1511183
1.9869307
2.0709953
2.0780602
2.1305532
2.0745053
2.104651
2.2107432
1.9434595
2.188956
2.0198512
2.078434
2.206196
2.2469406
2.0838873
2.123054
2.0787098
2.214676
2.158514
1.9534885
2.1247485
2.0899706
2.009008
2.186898
2.1470718
2.0546849
2.1249318
2.1123028
2.019987
2.1362624
2.0982156
2.2181244
2.0317504
2.0775561
2.0529952
1.8970907
1.9786098
2.0272121
2.3039083
2.0607877
2.035262
2.0691037
2.10925
2.0007231
2.091498
2.1487293
1.9409125
2.1682034
2.351353
2.0611289
2.1449337
2.089327
2.071256
2.15344
1.989926
2.1119983
2.1227012
2.2160275
2.1323009
2.097134
2.140851
2.1312861
2.0853696
2.094556
2.16295
2.1853728
2.0867524
2.26284
2.03364
2.0187097
2.129095
2.2289543
2.0502117
2.0252652
2.1660826
2.1921933
2.0722303
2.1044037
2.1714332
2.0781584
2.2838438
2.2354088
2.0611331
2.1322005
2.1440487
2.7837787
2.7853248
2.8982918
2.9120016
2.5156374
2.4327402
2.4576895
2.415822
2.3894458
2.501803
2.3844543
2.440533
2.4967093
2.4493203
2.5846877
2.6601605
2.3710735
2.4176679
2.4249573
2.4036312
2.296258
2.474992
2.292656
2.4173918
2.4044774
2.3952465
2.3253598
2.462208
2.356993
2.3266625
2.2258492
2.3272674
2.320554
2.3234682
2.3549497
2.4163659
2.398189
2.233922
2.2619886
2.318184
2.2411628
2.345757
2.1710615
2.085002
2.246179
2.2055643
2.2121506
2.266633
2.2820244
2.2688007
2.1752176
2.1645887
2.222283
2.2522597
2.301005
2.2431748
2.3159404
2.2320104
2.2846355
2.2581353
2.2190437
2.2107177
2.1790872
2.1542554
2.293686
2.2564058
2.1770573
2.1587029
2.2001634
2.4054606
2.1630936
2.2142453
2.1330247
2.1039095
2.0112357
2.1646261
2.19937
2.3078265
2.3667035
2.406774
2.318415
2.1190696
2.2457056
2.0925999
2.1639776
2.1517148
2.0131617
2.1679513
2.1065009
2.0763552
2.1964638
2.1727161
2.2150135
2.074552
2.1620855
2.1282675
2.215145
2.1121223
2.0882878
2.0878162
2.2551885
2.1389909
2.2096598
2.1448069
2.253993
2.1960194
2.163721
2.2345195
2.0853462
2.1822743
2.0883832
2.224506
2.2161145
2.1452913
2.104702
2.1444805
2.0626884
2.0327864
2.0528648
2.1612217
2.160008
2.075832
2.1298041
2.1037097
2.0875378
2.1515346
2.2342901
2.0697708
2.1144753
1.9568784
2.022571
2.1949358
2.0323362
2.087007
2.1048174
2.1471596
2.252663
2.1529722
2.249117
2.1097245
1.995897
2.056672
2.3157725
1.9792628
2.1310658
2.0901706
2.0742097
2.0440526
2.147695
2.065947
2.2379317
2.331029
2.0478125
2.2118332
2.0316272
2.1705985
2.0676637
1.9642725
2.196708
2.0543606
2.0157309
2.1835408
2.0533857
2.2314646
2.1636813
2.096843
2.2247286
2.0249605
2.151367
2.0988958
2.1060278
2.2203097
2.1710694
2.0777037
2.1039777
2.2646089
2.3041503
2.019938
2.0959582
2.0735059
2.0931072
2.1533592
2.1658664
2.0610662
2.03148
2.056437
1.9981985
2.1247444
2.1279092
1.9860299
2.1899164
2.0325446
2.177256
2.0842834
2.0933118
2.052432
2.1570153
1.9442103
1.9684575
2.1913977
2.151925
2.1753645
2.1746826
2.0763268
2.0709395
2.0665398
2.1522899
2.1315908
2.127644
2.0832677
2.1287808
2.2174733
2.142494
2.311452
2.0861359
2.0535846
2.1746252
2.0677533
2.1020794
2.0058663
2.1671908
2.3430383
2.1045957
2.0409765
2.0658677
1.9972684
2.1097102
1.9256326
2.0143762
2.0913846
1.9982357
2.289649
2.115851
1.9576116
2.2031164
2.1903389
1.9552484
2.0140748
2.0720878
2.163168
2.015144
2.0088568
1.9965872
2.0473897
2.0298305
2.0755928
2.1819491
2.0046024
2.0052524
2.0669208
2.1168113
2.0200472
2.0390863
1.9801605
2.1272378
2.1935096
2.0270681
2.1924195
2.0697207
2.0438337
2.0550156
2.0523562
2.0826812
2.135855
2.080298
2.0094337
2.0848365
2.044355
2.162941
2.0495708
2.0245314
2.082482
2.0244958
2.1141763
2.0661423
2.0541544
2.097856
2.240351
2.1026213
2.1386805
2.1762393
1.997808
2.008533
1.9407201
2.1603036
2.0299811
1.956701
2.1672978
2.1618462
2.050713
1.9396691
1.9063241
2.1041188
2.1143312
2.0512714
2.1732974
2.1293082
2.2219372
2.1284451
2.084415
2.1649492
2.1291294
2.0251536
1.980438
2.0989573
2.086069
2.0779805
1.9748486
2.0488653
2.1681104
2.0407417
2.1006045
1.9791671
2.1456232
2.0258422
2.0728698
1.9945551
2.0197434
2.0842533
2.1628723
1.9694769
2.0480936
2.077876
2.0419903
2.0644662
2.2179646
2.1651177
2.2174296
1.9356191
1.9906018
2.0772986
2.1342096
2.0145435
1.9143581
2.146447
2.0668957
2.175946
2.0408604
2.1313825
2.1252718
2.3405862
2.029305
2.092166
1.8864973
2.0972245
1.9841833
2.037794
2.0149336
2.002738
2.218462
1.9632125
1.9204713
1.9707397
2.0747867
1.9803889
1.9486686
2.0330253
2.0357919
1.9649508
1.935807
2.117538
2.0214696
2.0561812
2.0166106
2.268328
2.113361
2.0689986
2.0530891
2.0123658
2.1281009
2.1097617
2.0674438
2.0537004
2.118824
2.0834358
2.0617466
2.197321
2.1332362
2.0429368
2.1337159
1.9918932
1.9482691
1.9073122
1.9808002
1.8484461
2.1545053
2.131532
2.1544046
1.8775558
2.1459484
2.0924563
2.2719574
1.9868191
1.9815625
2.118884
2.1077456
2.0535476
2.1357079
2.0748782
2.164
2.1297681
2.103949
2.1556792
2.2148767
2.1019382
2.115179
1.9887087
2.0904806
2.1696763
2.2097282
2.0920155
2.1212285
2.04895
1.9107262
2.0706856
2.141002
2.1314173
2.015472
2.1117873
2.1052494
2.052382
2.0923223
2.0642943
2.1738515
1.9165344
2.0418253
2.1769242
1.9565363
1.9602554
1.9501588
2.0141363
2.1960158
1.9139093
2.0420103
2.0129473
2.0787425
2.048078
1.9746349
2.1453052
1.8980749
2.0038412
2.3059568
2.2262273
2.001361
2.0430987
2.117002
2.0245402
2.0370107
2.046175
1.981107
1.9169776
2.1011086
2.0336187
2.1417496
1.8470716
2.0783472
1.8791482
1.9973973
1.985522
2.2081048
2.7299786
2.647295
2.5400963
2.5275981
2.5833504
2.3437498
2.4453204
2.506282
2.3739345
2.5624714
2.319817
2.3074555
2.355985
2.503303
2.2004452
2.419159
2.316759
2.2361484
2.3202586
2.2846675
2.305241
2.350128
2.219688
2.2951565
2.2175221
2.4082355
2.319912
2.1440973
2.200598
2.2879527
2.4110942
2.2084665
2.208963
2.3081918
2.4754426
2.109522
2.249186
2.2324681
2.2001576
2.3551478
2.2553368
2.0459604
2.1740432
2.0493279
2.1257381
2.312682
2.135718
2.23115
2.274291
2.1477394
2.1426811
2.3455133
2.266387
2.114122
2.2289598
2.1362276
2.131354
2.09908
2.393879
2.082908
1.9729005
2.087359
2.188062
2.2868085
2.133782
2.1772108
2.375228
2.0082824
2.2318835
2.078617
2.351738
2.1318173
2.09524
2.1803992
2.126126
2.101263
2.0481188
2.0921168
2.2229605
2.157343
2.0068192
2.2017474
2.2310967
2.1741805
2.2174373
2.0310102
2.3663516
2.0086813
1.9306226
2.1495814
2.1510863
2.1484642
2.2316008
2.1803174
2.155254
2.0171244
2.168994
2.1304283
2.0824986
2.1140115
1.926748
2.0953224
2.0925908
2.0514884
2.1167896
1.9826667
1.9137797
2.0415874
2.023635
2.1794062
2.2191947
2.191788
2.1623933
2.0243337
1.9766946
1.9695747
2.0150595
2.009733
2.1482558
1.9816425
2.1050887
2.1713457
1.9786295
1.9943972
2.1520376
2.1766791
1.9863907
2.208621
1.9615657
2.070529
2.1555219
2.0498364
2.2338996
2.018606
2.0446486
2.0481777
2.070241
2.0454957
2.0729804
2.0745926
2.1111681
2.0050118
2.0164719
1.9748163
2.0696902
2.23038
2.1050885
2.2047157
2.0442605
2.0014257
2.0495317
2.071145
2.0183353
1.9756055
2.1772704
2.0283675
1.9827886
2.0085597
2.0670044
2.1313114
2.1308491
2.0130205
1.9965498
2.041975
2.0842843
2.0641537
2.0908403
2.0593228
1.9749448
2.0919557
2.0375285
2.1704388
2.0580359
2.1263022
2.059626
1.9808323
2.281375
1.942833
2.1016057
2.107459
1.9577825
2.2672167
1.8390567
2.0908988
1.9714049
2.10948
2.2256386
1.956138
2.0963564
1.9416668
2.13817
2.053474
2.099474
2.1046855
1.9980576
2.0010848
2.1276717
2.0961788
2.1511736
2.2251158
2.1860147
2.0981557
2.074743
2.0751896
2.133542
1.7945238
2.0070233
2.0766115
2.0339196
1.9472542
2.1741185
1.9972949
1.8183005
2.0863917
2.0676332
1.8673495
2.125179
1.9291805
2.0115857
1.9435283
2.0427184
2.135466
2.032981
1.9892715
2.0288267
1.9552768
1.9800057
1.9034011
1.9765693
1.8857377
1.8000567
2.1440763
2.035606
1.9618518
2.2152994
1.9487759
2.1117365
1.9768106
1.9549828
2.1579485
2.0073686
2.1153393
2.1196733
2.0485651
1.9590057
2.0635
1.9353927
2.1522565
1.8390068
2.0160666
2.0659413
2.1406264
2.061645
2.0751762
1.8557541
2.1063247
2.0300438
2.1179705
1.9075152
2.0421963
2.0677462
1.9189768
2.0626552
1.9209929
2.0327
1.9281607
1.9193803
2.0937972
2.0154123
1.9915998
1.9734294
2.0845325
2.211053
2.0494397
2.088367
2.048214
1.9171329
2.1030223
2.014634
2.0140488
1.9924824
2.1150818
2.0648363
2.2135305
1.9518902
2.0407157
1.927597
2.034874
2.014304
1.9876118
2.026833
2.0299418
2.1231139
2.0850768
1.9258926
2.1668744
1.9266492
2.0945842
2.0560546
2.28053
1.9605684
1.9860282
1.960958
1.913955
2.1449554
2.2052145
2.0874496
2.0972514
1.9453627
1.9350371
2.0452766
2.028825
1.9068351
1.8719925
2.0701816
2.0078697
1.9776016
1.970525
2.1452265
1.9761713
1.9980985
2.0299401
1.8965806
1.9324639
2.0328097
1.9186556
1.9106731
2.0214863
1.863785
1.9357
1.955577
1.9737172
2.031445
1.9681778
1.9643327
2.1942475
2.0924358
2.109942
2.0622857
2.017623
2.0081768
1.9955996
2.0462828
2.0106034
1.942868
1.9902964
2.0088356
2.033466
2.0228786
2.0867329
1.9893739
2.1125822
1.9107344
1.9859059
2.1218963
2.014607
1.9967773
2.029779
2.0557017
1.98639
1.8759596
1.9493515
1.9200001
2.1576471
1.9508312
2.1112924
2.1746533
2.061254
2.1319256
2.1005616
2.0018733
2.2362432
1.9152322
2.0601985
2.0550723
2.0222092
1.9696534
1.941747
2.132328
2.0308537
1.9006691
2.0286102
1.9645075
1.8812299
2.0222173
2.1218605
1.8753016
1.9595494
1.8771325
2.0766296
1.9106734
1.995586
2.070428
1.9180453
1.9257833
2.0699718
2.1881027
2.0798974
1.9952844
1.9962649
1.8446534
1.9170704
1.9687477
2.020358
2.1638532
1.9996674
1.9110614
2.049574
1.9079726
1.9365891
2.1616936
2.0105762
2.5064695
2.530759
2.7626808
2.3535955
2.3287873
2.35705
2.4713225
2.2606883
2.4430742
2.3152604
2.265294
2.4733808
2.297088
2.216353
2.3664467
2.3285356
2.265204
2.2358468
2.1922922
2.2577355
2.300736
2.1731687
2.2019892
2.2786994
2.2382836
2.1389816
2.315973
2.2892544
2.1597013
2.2601354
1.9457067
2.2252212
2.2186565
2.0464745
2.1381943
2.228212
2.1265287
2.1068816
2.1933765
2.2678158
2.1486783
2.1521313
2.1012895
2.0667098
2.0724149
2.1043248
2.1432335
2.189451
2.0878775
2.1434655
2.1162424
2.023271
2.1240904
2.1660883
2.0238008
2.128138
2.1019268
2.048422
2.162979
2.182
2.0522547
2.001395
1.9839556
2.0986798
2.012361
2.1595063
2.1541781
1.96575
2.125648
2.014124
1.9363438
2.2025008
2.1629815
2.0864549
2.189299
1.9439745
2.1759992
2.0674665
2.0038676
2.1086257
2.1323817
1.9796997
2.0645814
2.0799675
2.2852364
2.2180233
2.2261648
2.0340652
1.9839325
2.1235523
1.9497983
2.1781802
1.9949554
2.1527402
2.1095033
2.0033557
2.0008605
2.1372762
2.060844
2.1152515
2.0463462
2.0542588
2.1551597
2.0499446
2.101953
1.9440925
2.0047662
2.0153294
1.9676099
2.21174
2.0448406
2.1371064
1.9569694
1.8250964
2.0091734
2.0964346
1.9026475
1.9003141
2.2738752
2.15807
1.9814339
2.0708647
2.0317202
2.041091
2.0035455
1.9104629
1.9842423
1.9944484
2.0111818
1.8792624
2.048696
2.103073
1.9270542
2.0000598
2.0624459
1.8666884
1.926132
1.9699309
2.0269375
1.9598742
1.8890572
2.002777
2.1676126
2.062794
2.0212846
1.9320923
2.0602412
1.9551412
2.037468
1.9417417
1.8258371
2.0096092
1.9379761
1.9031631
2.032164
2.2215366
1.9592292
1.9607042
1.9916353
1.9362316
1.9507651
2.0047424
2.0747762
1.9764528
2.0152988
1.8888087
1.9657893
1.9892625
1.9660814
1.8916085
2.0777385
1.9567862
1.9929532
2.0626256
1.9449209
1.9871339
1.9931374
2.0339499
1.9837302
1.9432298
1.9739273
1.9161242
1.9932142
1.9760531
2.0451531
2.218983
2.0684896
2.100636
1.8630948
1.967291
2.034946
2.0008862
2.042255
1.9370419
2.0308452
2.0200555
2.1591158
1.8775723
1.9345856
2.1150188
2.0383372
1.8841379
1.907119
1.8449749
2.0535603
1.8561771
1.9697374
1.987206
1.808508
2.0210395
1.8821039
1.9765229
1.8541989
2.003028
1.8467337
2.1597116
1.8518864
1.8707972
1.9079435
2.0956788
1.9153571
1.9132401
2.0665836
1.9611237
1.9516399
1.9260383
1.9040828
1.8176931
2.0087411
1.906937
2.012038
1.9804254
1.9642872
1.9584595
1.963102
1.8968867
1.8925873
1.911493
2.024974
2.0153282
1.8544604
1.9865899
2.1182818
1.8459922
1.8630371
2.0589266
2.0733252
1.899458
1.9130405
1.9321877
1.9785162
2.0607502
1.8964003
2.1040635
1.949573
1.8974825
2.046258
2.0245333
1.9182179
1.8433423
1.9600587
2.0764284
2.0595624
2.169554
2.0822594
1.9647028
2.0306435
2.0458431
2.0546064
2.048247
1.8860192
1.9366622
2.0032809
2.0038743
1.890796
2.0168505
2.1247578
2.014637
2.0557196
1.9929805
1.9960718
1.8563592
2.0662017
2.0903888
2.04944
1.9901929
2.01921
2.0692177
1.9516363
1.9579265
1.8274019
1.7585638
1.9871781
2.0965233
1.8138795
2.0009124
2.0267007
1.8575338
1.9685112
1.9314849
1.9806511
1.9348329
1.9812218
1.86239
1.9489105
1.891869
1.9203138
1.8987209
1.9407511
1.8527266
1.9901271
1.9396462
1.9983513
2.0582147
1.931005
1.8953426
1.8580759
1.9631059
1.8528491
2.013402
2.0316215
1.9929994
2.0012918
1.9223951
2.0215647
2.087411
1.9016607
1.8759673
1.9236829
1.9605765
1.9735703
1.8537807
1.9827464
2.038136
1.996083
1.9995759
1.9214175
1.8654735
1.8947669
2.0529902
1.9294574
1.9877062
1.9054754
2.006333
1.8293817
1.8672371
1.9904487
1.9290274
1.9685602
1.9429593
2.0187624
1.8358428
1.8413479
2.0344174
1.8847253
2.1444669
1.9211174
1.9398937
1.9003184
2.119547
2.002005
1.9430108
2.0308776
2.1117744
1.9259481
1.9232378
1.9171207
2.0158195
2.089813
2.1646285
2.1090066
1.997275
1.7810316
2.046835
1.9497422
1.9514087
1.9459679
1.9937199
2.01276
2.0781388
1.9108522
1.9651341
2.1183577
2.0591516
2.5748549
2.9053195
2.37931
2.6163602
2.204204
2.2479732
2.3158062
2.3238614
2.2519436
2.3028975
2.1584089
2.2585373
2.29393
2.2821007
2.1404123
2.0958886
2.2328339
2.3699217
2.2358725
2.0873914
2.2748747
2.1525283
2.1752944
2.096964
2.1229415
2.0958524
2.167098
2.2860336
2.0153894
2.162228
2.1442745
2.1150951
2.1310043
2.3032131
1.9820251
2.3584428
2.3165984
2.2845073
2.2124066
2.1398194
2.2096605
2.1284003
2.2395988
2.1807106
2.1553338
2.0971665
2.0394194
2.1230547
2.2169106
1.9487413
1.9929392
2.1145728
2.1442528
2.1117356
2.0356622
2.0319655
2.1407537
2.182644
2.0995474
2.102861
2.1492567
1.961293
2.2130342
2.2025223
1.9945457
2.1297536
2.0588627
2.0391815
2.020937
2.0628707
2.0961797
2.16861
2.009606
2.0825021
2.060048
2.0426264
2.0809402
2.1674285
2.1934767
1.9324256
1.9986782
2.1224427
2.0778952
1.9857715
2.065389
2.0784566
1.9759867
1.8693736
2.0415883
2.0449595
2.0190125
2.1029549
2.079106
1.9877568
1.8674386
1.8665086
2.1500468
2.07798
1.9337635
1.9837959
1.9549575
2.027783
2.0041516
1.9024729
2.0791357
1.8787583
1.9789314
2.022256
2.065158
1.9715099
1.9164144
2.1193023
1.9694173
2.007638
1.9382097
1.9842777
1.9439137
1.985249
2.0503955
2.0551248
2.1216993
2.0233827
2.1724937
2.0742688
1.8613629
2.0606754
2.0608206
2.14134
1.966907
2.0366461
2.0025501
2.1075296
2.1460886
1.9454244
1.9845874
1.9777681
1.9797491
1.8912833
2.172058
1.9881233
2.0287838
1.9257501
1.8682051
1.9803574
1.8348793
1.9494134
2.1012058
2.0880413
1.8980452
2.044971
1.9856833
2.001655
1.9674516
1.9511349
2.0828528
1.955142
1.9552984
1.9312375
2.033618
1.9368961
2.0185761
2.0065982
1.9584419
1.9378047
1.8517156
1.7985132
1.9544027
1.9315383
2.1143565
1.9648149
1.8326521
1.8950924
2.1097984
2.0301428
2.0625281
1.9109907
2.0816565
1.9074335
2.2405868
1.9469515
1.9236639
1.999918
2.0163193
2.0137038
1.9183543
1.8511964
1.9436643
1.9212053
2.005097
1.870419
2.0466118
1.9589553
2.134275
2.0016932
1.8671749
1.9205803
1.9550036
1.8912405
2.0340438
1.8422248
2.0483894
1.9359095
1.9507478
1.9571366
1.9835968
1.8795183
1.9750385
1.9997375
1.9458052
1.8629422
1.863718
1.8642795
1.9215336
1.9036747
1.8896723
1.9650853
1.8557588
1.943388
1.9322195
1.7668703
1.9074243
1.814594
2.0284595
1.9374768
1.9200342
1.8616185
2.1228042
2.0637856
1.9485962
2.0403595
1.9461627
1.8879871
2.1222434
1.9590323
1.8422947
1.8835423
1.7839715
1.9227133
1.844862
2.067144
2.0879338
1.9689555
1.9634259
1.9637498
1.9446578
2.1336093
1.9962661
1.9838008
1.8682958
1.9966066
2.0490146
1.8640695
1.8558056
1.8036277
1.9273117
1.9103014
2.142614
1.9639235
2.0094204
1.9551013
2.0046644
2.0938811
1.9170487
2.0154
1.9970763
1.9722848
2.0045722
1.9781673
2.0482328
1.9487674
2.0123014
1.9621212
2.0384338
1.8855014
2.072505
1.9652908
1.9863545
1.9632766
2.0470698
1.9219141
1.8432007
2.0906096
1.9295428
1.9386151
1.8042529
1.9506152
1.8090824
1.9368109
1.9248943
1.8951267
1.943135
1.9155619
1.908342
1.8279586
1.9690108
2.0017147
1.980199
1.914181
2.0428848
2.0347672
1.9198673
1.8253641
2.0557547
2.007337
1.9595385
1.8732674
1.8817424
1.8383703
2.0279675
1.9712944
2.0237684
1.9113717
1.9690714
2.184035
1.9280119
1.8444946
2.055256
1.8708661
2.0158749
1.8532902
1.8470023
2.0433674
1.8251208
2.0065076
1.9996111
2.0269814
1.7882801
2.0628247
1.8975298
1.8823364
1.8866284
1.9531064
1.8949636
1.8274696
1.8915495
1.9498239
1.8549428
1.9131527
1.9724364
1.9044653
2.0443032
1.8297589
2.028231
2.0156817
1.8909256
1.9952941
1.9607267
2.0176811
1.9216309
1.8204021
1.9968088
1.8070114
1.7791464
1.9884193
2.1276026
1.9610549
2.0922844
1.9439726
2.0602365
1.9541304
1.8143655
1.9599459
1.9856614
1.9647279
2.0052087
1.9859903
1.8994504
1.8526441
1.9966542
1.798585
1.8241853
1.979596
2.5255997
2.4017043
2.4908435
2.2918644
2.419062
2.2090464
2.393928
2.2239947
2.3464992
2.2736332
2.2082994
2.2526588
2.2778878
2.0644147
2.1388555
2.2031574
2.2380106
2.1059961
2.1867523
2.2422566
2.1879456
2.096997
2.40899
2.1642818
2.2301278
2.2932491
2.0227985
2.2097392
2.1390657
2.1657174
2.1226249
2.0626981
2.196638
2.1981516
2.208438
2.0494246
2.0706196
2.0545876
2.298182
2.218573
2.0554757
2.0467472
2.1537642
2.1619418
2.1048806
2.118501
2.126525
2.140317
2.1996899
2.121529
2.0746913
2.0481005
2.0642867
2.058219
2.092976
2.268083
1.9206588
2.15397
1.8815734
2.0091937
2.0305212
2.0894747
2.0428047
2.1366968
2.0943599
2.028407
2.018456
1.9632219
1.9362886
2.0099635
1.9945283
2.0110922
2.1541152
2.0112536
2.0942397
2.0418735
2.1015813
2.0939465
2.0924625
2.2282114
2.0806952
2.057494
2.2092278
2.1556616
2.1383681
2.0749342
2.000489
2.0532515
1.9635582
1.8947815
2.077401
2.0921788
1.90553
1.7339447
1.9609995
1.9609989
1.9894706
1.9354186
2.0446699
2.00767
1.8470736
2.019498
1.9244654
1.8732934
2.0091734
2.0486832
2.1585388
2.001366
1.9583422
2.0851133
1.9892535
2.1945176
1.9739468
2.0904324
1.9260612
2.0839384
2.0743878
2.0085623
1.9555459
2.0278003
2.013814
2.0604146
1.9401909
1.9189383
1.7837946
1.9872013
1.9678571
1.967705
1.9665232
1.8848724
2.1981916
2.2014787
1.9004493
1.9719412
1.9529393
1.9936242
1.9216385
2.0137823
1.8689616
1.9858267
1.9133773
1.9555147
2.0999074
1.9342549
1.9149346
2.0593832
2.0743685
1.8912767
1.9535003
1.8892609
1.892037
2.2935257
1.928176
1.7340548
2.055842
1.9896216
2.0864594
1.9881473
1.9823704
1.9214401
1.911453
1.8210123
2.318316
1.9537477
1.9317684
1.9309608
2.0186071
2.0892549
1.932968
2.058844
2.0633597
1.9485384
2.0222661
1.9549567
1.8955457
2.0872664
2.0447488
1.8766913
2.0450506
1.8628229
1.823863
1.9025655
1.9190475
2.023787
1.9496484
1.8585558
1.999336
1.9681334
1.9727124
1.8357849
1.9923842
1.9516277
1.8713294
1.9374729
1.953886
1.9388928
1.9177006
1.8455946
1.9196229
1.9670068
1.9009055
1.8845224
2.0728474
1.8220916
2.0589204
2.1319885
1.9174445
1.967721
2.0856462
1.9063859
1.8688015
1.872875
1.8693309
1.9143758
1.9692254
1.9798707
1.9426278
1.9375372
1.9124382
1.9937016
1.8935192
2.0035892
1.8984969
1.9074595
1.820376
1.9861758
1.9445057
1.8550103
1.837668
2.0324883
1.8913791
2.021082
1.7937677
1.9688451
1.9877081
1.9483659
2.0191448
1.9947066
1.9442991
1.9803286
1.9785655
1.9098952
1.9461093
1.8675586
1.8581824
2.081336
1.869792
1.8459404
1.901856
1.9445697
1.950719
1.9568974
2.0107908
1.932634
2.0074034
1.940447
2.0230246
1.9499362
2.022301
1.8855447
2.004947
2.185979
2.0487473
1.8561497
1.9849207
1.981837
2.0554779
1.9732153
1.9328403
1.9591937
1.9687772
1.9914501
1.9552803
1.8152854
1.9238191
1.9033532
1.9764977
1.8489941
2.0380356
1.7849407
1.8813322
1.9720399
1.8124874
1.9526725
2.0574794
1.9146621
1.9833711
2.0457487
1.8178153
1.7141278
1.9888718
1.9341903
1.8218104
1.7328842
1.9839447
1.9656823
1.9589189
1.859824
1.9861419
1.8198948
1.832459
1.9146178
1.9039524
1.8666556
2.082421
1.9030915
1.9648815
1.9181385
2.0491793
1.9506419
1.9410717
2.0375998
2.058157
1.9408479
1.8566976
2.0250344
1.9997668
2.0838816
2.1354828
1.8033834
1.8926363
1.9492239
1.899753
1.8661734
2.0714424
1.900095
1.8724729
1.9073658
2.0685234
1.9712543
1.9702204
1.7037916
2.045953
2.011828
1.9379599
1.9453393
1.9151084
1.8825784
1.952498
1.9459326
1.8553534
1.864398
1.929599
1.7778655
1.8296175
1.9856691
1.8920962
1.8503487
1.9401907
1.8506131
1.9410617
1.9143349
2.055586
1.7354332
1.9243014
2.043079
2.767272
2.582824
2.2293844
2.3430433
2.2424173
2.228245
2.372913
2.225856
2.2188714
2.190261
2.2178836
2.1155353
2.259667
2.2757423
2.2527213
2.120873
2.0240455
2.0958734
2.1476457
2.0438278
2.159182
2.1063247
2.1827035
2.21659
1.98489
2.056546
2.0250554
2.3199282
2.1108675
2.1611915
2.0554311
2.0713253
1.9796152
2.1849294
2.22633
2.2608101
2.1397738
1.9512333
2.033588
2.0690968
2.146716
2.0387588
1.980671
2.0948088
2.0834067
2.0835226
1.9951565
2.214004
2.1501846
2.1272216
2.0685124
2.143701
1.9266026
2.0973105
2.0346296
1.9755108
2.0295215
2.0741076
2.0907235
1.9996119
1.9109712
2.0820942
2.0348284
1.9540982
2.170737
2.0441885
2.1207285
1.981673
2.2356267
1.9562755
2.0530338
1.9818711
2.0004272
1.8737856
2.081525
1.9125093
2.049605
2.0292096
1.9707947
1.9369881
2.0459166
2.035534
2.1044903
1.9683403
1.9737331
1.8619418
1.9666213
1.8697442
1.8798351
2.005622
2.00763
1.9317132
2.048135
2.0232377
1.906016
2.001639
2.027371
2.0002193
1.8776933
1.917709
1.840173
1.9960842
2.0111687
2.147774
1.939299
1.9295444
1.8227739
1.9438117
2.0171733
2.1412678
2.1112275
1.9494407
1.8107833
1.8697625
2.0107067
1.9861331
2.0978787
1.8962847
1.9059706
1.9379117
1.9937365
1.9405177
1.9501641
2.0126693
2.0777154
1.8870432
2.0169873
1.8550009
1.8844476
1.8918471
1.8873332
1.9789627
1.9714221
1.9523947
1.9442912
1.8154329
1.9869702
1.9947848
2.0009923
1.946525
1.919575
1.8746171
2.1615336
2.0516083
1.902923
2.00896
2.0979908
1.9198664
2.1206007
2.087328
1.9322047
2.0719414
1.9515576
1.7563226
1.9389601
1.8893864
1.9099984
1.8959116
1.8052464
1.9061403
2.0534728
1.8537765
1.9433573
1.9022837
1.9395245
1.8709867
1.9817028
1.8453825
1.7901788
1.9266329
1.9662459
1.8799906
1.837796
2.0064034
1.8841262
1.9871752
1.8603987
1.8068235
2.0540128
1.7967191
1.8995439
1.8761503
1.9846529
1.8089194
1.8550001
1.9150872
1.8263652
1.8459445
2.102985
1.8918691
1.9333477
1.8314415
1.8399758
1.8991249
1.8639047
1.95235
1.9498351
1.9176353
1.8522352
1.8747203
1.9174974
1.9724053
1.8898772
1.9852555
2.0211964
1.8857098
1.9874871
1.9193878
2.0030136
1.9341996
1.9043919
1.9328188
1.9778718
1.9524076
2.1241322
1.8697418
1.9865351
1.8181257
2.0720296
2.0048025
1.9106367
1.8635061
1.9426401
1.9810126
2.0251079
1.8916798
1.9900258
1.8694938
1.8405025
2.0451562
1.9831703
1.9620106
1.9041791
2.0467348
1.9668707
1.8933299
1.8076546
1.8869987
1.9860637
2.0967398
2.095213
2.0359116
1.8589563
1.9394095
1.9672513
1.7918074
1.9075007
1.8131921
1.8924149
2.0306778
1.8716495
1.9211233
1.8382716
1.9010032
1.8040732
1.7893244
1.9228911
1.9825926
1.8443167
1.9117266
1.7816503
1.9228034
1.9085817
1.9212706
1.9169046
1.8598226
1.7410858
2.000677
1.801852
1.9559404
1.8457031
1.8394585
1.8077488
1.8315287
1.9918854
1.9320021
2.0795507
2.004931
1.778449
1.9021602
2.0545454
1.8509315
1.7205178
2.0642684
1.7955788
2.0342855
1.9435651
2.068335
1.9728296
1.9215802
1.9128139
1.9196262
1.9523273
1.8551116
1.8175954
1.9399855
1.8740666
1.9108472
1.9121501
1.9126126
1.8699672
1.9938189
1.7969646
1.8412762
1.8989166
2.0351496
2.033873
2.09149
2.0265841
1.7636119
1.9795786
1.8003902
1.8941574
1.9139814
1.9567821
1.9333014
1.8700209
2.034506
1.9078658
1.9626244
1.9942966
1.8395422
1.8656822
2.1821322
1.9740496
1.9971243
1.8734999
1.8136264
2.5688796
2.412571
2.2126276
2.439033
2.3781686
2.30967
2.1969414
2.2108004
2.1936362
2.199823
2.3274212
2.2613928
2.3226533
2.2277818
2.2823358
2.1447978
2.273456
2.230929
2.150324
2.2602997
2.2304757
2.1131945
2.2305984
2.2140439
2.2698715
2.109989
2.1880822
2.0702338
2.049343
2.2687783
2.104616
2.1961126
2.1019256
1.9809215
2.202928
2.2099419
2.141376
2.007381
2.011061
2.1296885
2.1607914
2.1778393
2.0502522
2.1391711
1.9596671
1.8788896
1.9905121
1.9484096
2.1132798
1.9693514
2.1692061
1.9836354
2.2016053
2.0985653
2.1023662
2.1456099
2.0480323
2.0759528
2.0195706
1.9447721
2.057384
2.1770082
1.9492544
1.8867408
1.974948
1.9049252
1.966526
1.9144229
2.0735776
2.2081807
1.8570457
1.9667084
2.0085514
1.8365741
1.9556875
2.033437
1.8145092
2.0331602
2.000226
1.8786476
1.9701633
1.9610572
2.0279033
2.060384
1.7792883
1.9926724
1.885051
1.7974061
2.055099
1.9287825
1.9929729
1.927156
1.8390579
1.9018346
1.9935925
2.0432322
2.0021
2.0735006
1.9523237
1.9222898
1.8492346
1.9237568
2.0246577
1.9713335
2.028472
1.9792529
1.8395721
1.9216607
1.9054093
1.8516657
1.9262662
1.9281777
1.98154
2.0744472
1.9408303
1.981526
1.8963089
1.8380775
1.9659045
1.9931333
1.9586852
1.9203141
1.9567887
2.0226483
2.1114645
1.9252015
1.8706194
2.0338469
1.9803603
1.9408154
1.9130831
1.976747
1.9756014
1.8182362
2.017501
1.8799479
1.9390886
1.8418663
1.9259115
1.9603398
1.9777141
1.9381824
2.0025568
2.138733
1.8423226
2.035265
1.9881042
1.8017287
1.9383159
1.9791564
1.9242029
1.8535745
2.0587568
1.9511046
1.999954
1.8383238
1.9548975
1.9528129
2.098528
1.6997813
1.9675424
2.0314076
1.844795
2.0172381
1.8641636
2.009114
1.9810253
1.9862149
1.8445246
2.1286633
1.9258076
1.9871178
1.9228961
1.9795665
1.795059
1.9382207
1.897328
1.8505785
1.9520159
1.8742602
1.8128487
1.9654081
1.9353577
1.8974748
1.8498377
2.1036906
2.015428
1.9380727
1.9067217
1.8680682
1.965941
1.9066002
1.8877404
1.8690884
1.9166965
1.9283738
1.8185945
1.8515427
2.0617018
2.0488617
1.8712761
1.9683319
1.9100068
1.8796048
1.893987
1.9277
1.6865993
1.7978017
1.921268
1.8131723
1.8831756
1.8757366
1.8816317
1.7441856
1.9654888
1.9067712
1.855057
1.9690309
1.7539122
1.8693404
1.9603215
1.9028645
1.8500314
1.9327922
1.8643961
1.9797323
1.821132
1.7237906
1.994052
1.925051
1.9918187
1.8838161
1.9797084
2.0650282
1.9066234
1.8723869
1.9023614
1.9062631
1.9149616
1.8987381
1.9366571
1.9671304
2.0744245
1.7534397
1.9965599
1.9781005
1.9655275
1.9274732
1.9558492
1.9652348
1.9123039
1.9413335
2.0725245
1.9192805
2.2385595