
1.5026288e-16
1.5029821e-16
1.06143935e-16
1.0709863e-16
1.0228819e-16
1.206234e-16
1.2261633e-16
1.3671899e-16
1.1019538e-16
1.1431006e-16
1.2413308e-16
1.06421855e-16
1.292003e-16
1.1884484e-16
1.2310345e-16
1.3049154e-16
1.0397757e-16
1.2489435e-16
1.3488674e-16
1.0245332e-16
1.2002452e-16
1.00684424e-16
1.0375825e-16
1.4628197e-16
1.2558149e-16
1.06533604e-16
1.2417241e-16
9.9338416e-17
9.70107e-17
9.766215e-17
9.47908e-17
1.0104912e-16
1.0449754e-16
9.120939e-17
1.00398795e-16
9.1881436e-17
8.9642834e-17
8.5369685e-17
1.0113589e-16
1.1227543e-16
8.7154774e-17
1.05522637e-16
1.0595337e-16
8.998018e-17
1.06613185e-16
9.918744e-17
7.34917e-17
1.1725943e-16
1.0939979e-16
6.9477156e-17
8.5267266e-17
6.5276925e-17
7.060675e-17
7.710511e-17
6.013681e-17
6.701671e-17
5.9097767e-17
6.072031e-17
5.644708e-17
5.2744576e-17
5.67885e-17
5.885337e-17
6.279487e-17
6.0236285e-17
6.0290105e-17
6.0628593e-17
5.755488e-17
5.874723e-17
5.0209592e-17
4.7113842e-17
5.181268e-17
4.693575e-17
4.5536614e-17
4.1520433e-17
3.8349887e-17
3.630065e-17
4.0296057e-17
3.767592e-17
4.039393e-17
4.0784785e-17
3.5879816e-17
4.517654e-17
5.272739e-17
3.5315166e-17
4.4174337e-17
4.4512058e-17
3.826965e-17
6.0372584e-17
4.059527e-17
4.3623315e-17
4.2051748e-17
3.4150618e-17
4.4019892e-17
4.803392e-17
3.1833407e-17
3.9122523e-17
3.4055827e-17
2.6747745e-17
3.1810574e-17
2.6075534e-17
3.778367e-17
3.088336e-17
2.682276e-17
3.6869273e-17
2.806865e-17
2.8089227e-17
2.3730774e-17
2.6543352e-17
2.3414863e-17
2.5866925e-17
2.4478154e-17
2.3083233e-17
2.2943029e-17
1.9293756e-17
2.1606818e-17
2.2245702e-17
2.1531233e-17
2.0335848e-17
1.931168e-17
2.110638e-17
2.0396252e-17
2.0996097e-17
2.0056782e-17
2.2823888e-17
2.154073e-17
1.9886256e-17
1.9584652e-17
1.7642475e-17
1.5291635e-17
1.5958417e-17
1.658926e-17
1.6610682e-17
1.4734184e-17
1.5176723e-17
1.4804523e-17
1.2921228e-17
1.2278467e-17
1.28225535e-17
1.3163321e-17
1.1798337e-17
1.2341477e-17
1.6061078e-17
1.3180309e-17
1.24060515e-17
1.7762013e-17
1.4641974e-17
9.083336e-18
1.19737454e-17
1.0524984e-17
9.131597e-18
1.032104e-17
9.94531e-18
8.409017e-18
8.950718e-18
1.0109543e-17
9.0999934e-18
1.00854625e-17
9.3078134e-18
9.739296e-18
8.8815855e-18
9.322567e-18
9.269567e-18
9.142528e-18
8.88431e-18
7.7628535e-18
7.901184e-18
8.374106e-18
8.258746e-18
7.738688e-18
8.392447e-18
7.957557e-18
8.32477e-18
7.584277e-18
7.45613e-18
7.415147e-18
7.330504e-18
6.8827184e-18
9.4823585e-18
7.0893605e-18
6.488088e-18
7.6770194e-18
7.207018e-18
6.1439903e-18
6.734806e-18
6.4379426e-18
5.848884e-18
6.0314304e-18
6.148534e-18
6.194729e-18
6.1678325e-18
6.941158e-18
5.872279e-18
5.7227668e-18
7.076429e-18
5.460642e-18
5.357749e-18
5.328772e-18
5.3984305e-18
5.835428e-18
6.063964e-18
4.6266437e-18
5.5409e-18
5.9056477e-18
4.3298504e-18
6.3306374e-18
5.2601246e-18
3.903209e-18
6.440659e-18
6.728796e-18
3.9984397e-18
5.0232197e-18
4.4393394e-18
3.3959515e-18
4.289062e-18
3.4695007e-18
4.059382e-18
4.667498e-18
4.011044e-18
3.314922e-18
4.0758316e-18
3.7926967e-18
3.2400419e-18
3.345058e-18
2.7195076e-18
3.2916087e-18
3.487133e-18
2.7367498e-18
2.8458903e-18
3.195302e-18
2.8381123e-18
2.7741727e-18
2.994201e-18
2.5527344e-18
2.6361617e-18
3.4374497e-18
2.9128621e-18
2.5155818e-18
3.2503988e-18
3.0392175e-18
2.1634349e-18
2.584249e-18
2.5298058e-18
2.206097e-18
3.0627169e-18
2.4180195e-18
2.140004e-18
3.2327277e-18
2.9316013e-18
1.8476775e-18
2.5190942e-18
2.364793e-18
1.9236155e-18
2.5909729e-18
2.9235801e-18
1.8563856e-18
2.2522221e-18
3.279132e-18
2.3217756e-18
1.7661381e-18
2.3029473e-18
2.1097084e-18
1.6823735e-18
1.6145213e-18
1.6642475e-18
1.4900067e-18
1.4414942e-18
1.5487044e-18
1.6099747e-18
1.5293722e-18
1.3354746e-18
1.3837944e-18
1.4653732e-18
1.2123688e-18
1.2693171e-18
1.3698223e-18
1.33235e-18
1.0447518e-18
1.2820704e-18
1.3931574e-18
1.2229222e-18
1.4024373e-18
9.683351e-19
1.0618222e-18
1.0058582e-18
1.0027332e-18
8.414183e-19
9.006592e-19
8.587219e-19
8.959226e-19
9.384444e-19
8.45145e-19
8.808183e-19
7.8455713e-19
8.746258e-19
9.269931e-19
9.071566e-19
8.046452e-19
8.197807e-19
7.792606e-19
6.4773283e-19
6.969252e-19
7.4752446e-19
6.552689e-19
7.252525e-19
7.0946335e-19
6.616207e-19
6.0340965e-19
6.5055305e-19
6.393374e-19
5.9731803e-19
5.4057215e-19
6.026498e-19
5.759998e-19
4.6919235e-19
5.1750777e-19
5.409998e-19
4.6679596e-19
4.516279e-19
5.240123e-19
4.916315e-19
4.3627667e-19
3.32806e-19
3.9205776e-19
4.2567373e-19
5.0474416e-19
3.6285456e-19
3.7555783e-19
4.526e-19
4.416697e-19
3.286367e-19
4.3766457e-19
5.5380466e-19
3.9249144e-19
3.4754373e-19
3.8481158e-19
4.79645e-19
3.8550747e-19
3.1505526e-19
3.8704432e-19
3.979186e-19
2.9663265e-19
3.736627e-19
5.830575e-19
4.216747e-19
2.9038504e-19
5.6773583e-19
4.455955e-19
3.0822665e-19
7.7162494e-19
8.5348733e-19
3.2736986e-19
3.4937126e-19
6.7260806e-19
5.199498e-19
2.2932181e-19
4.3741337e-19
5.7645214e-19
2.8116539e-19
3.023692e-19
6.5435136e-19
5.9191597e-19
2.2321223e-19
3.5602815e-19
4.4197423e-19
2.5348733e-19
2.6131054e-19
3.174067e-19
2.5062655e-19
1.974925e-19
2.7386808e-19
2.4654175e-19
1.8651035e-19
3.0409677e-19
2.2746102e-19
1.9016392e-19
2.6004883e-19
2.0566109e-19
1.6288561e-19
2.5269556e-19
2.1208815e-19
1.3647498e-19
2.1813663e-19
2.587238e-19
1.8575527e-19
1.3687345e-19
1.792914e-19
1.6483249e-19
1.1208879e-19
1.6876534e-19
1.6709258e-19
1.2027295e-19
1.3890407e-19
1.1985727e-19
1.1369879e-19
1.1097104e-19
1.0952605e-19
1.1252664e-19
9.835034e-20
1.0369822e-19
1.06204103e-19
1.1997298e-19
1.01896864e-19
9.061415e-20
1.0731524e-19
1.1170097e-19
7.8937045e-20
9.1830645e-20
1.1814086e-19
9.94862e-20
7.306516e-20
7.507742e-20
7.3140874e-20
7.329763e-20
1.0572763e-19
8.115106e-20
6.510984e-20
8.41605e-20
7.879694e-20
5.7123536e-20
7.3452436e-20
8.7106397e-20
6.528605e-20
5.233469e-20
6.1836966e-20
4.8366685e-20
6.002401e-20
6.169057e-20
5.2115836e-20
5.7704094e-20
8.61258e-20
1.2361509e-19
7.966495e-20
4.5851193e-20
9.043046e-20
9.8417484e-20
4.5394525e-20
5.484784e-20
8.5063454e-20
5.8054715e-20
3.9244053e-20
6.851993e-20
1.01143076e-19
6.7044184e-20
3.739627e-20
4.6972992e-20
7.465643e-20
5.4612454e-20
2.793277e-20
5.889253e-20
1.004021e-19
6.50267e-20
2.5896335e-20
5.989094e-20
9.293108e-20
6.475837e-20
2.5288537e-20
4.3660144e-20
7.2791655e-20
4.4170333e-20
2.1204995e-20
5.003621e-20
6.256718e-20
3.3764414e-20
1.8913359e-20
3.6180282e-20
4.0919058e-20
2.3401673e-20
2.246518e-20
3.4655045e-20
3.0104027e-20
1.6825839e-20
2.8323475e-20
3.644534e-20
2.1934053e-20
1.5909779e-20
2.6349657e-20
3.046335e-20
1.8745144e-20
1.527346e-20
2.1602145e-20
1.9589773e-20
1.6803282e-20
1.411061e-20
1.2830936e-20
1.8562582e-20
1.7288379e-20
1.2715781e-20
1.31113135e-20
1.6805223e-20
1.4292017e-20
1.317038e-20
1.8720422e-20
2.4157902e-20
1.5981249e-20
1.1394064e-20
1.7757897e-20
2.1186096e-20
1.6955283e-20
9.248037e-21
8.71643e-21
1.2525702e-20
1.2118456e-20
9.0694635e-21
6.825676e-21
9.078776e-21
7.962412e-21
7.581576e-21
8.853342e-21
9.477419e-21
9.7394685e-21
7.2729565e-21
6.989293e-21
9.364944e-21
1.10729434e-20
1.1839147e-20
9.1776125e-21
7.692825e-21
6.2186853e-21
5.964238e-21
6.6108844e-21
5.879147e-21
6.0360658e-21
6.778922e-21
6.1363053e-21
7.750301e-21
7.286831e-21
5.4667575e-21
6.861762e-21
7.013901e-21
5.2515237e-21
4.931999e-21
7.316565e-21
7.802914e-21
5.9739436e-21
3.7922027e-21
5.687558e-21
6.6800933e-21
5.188604e-21
3.845503e-21
4.680046e-21
5.934239e-21
5.787431e-21
4.1702367e-21
3.3539013e-21
4.002695e-21
3.490127e-21
3.567088e-21
3.3317381e-21
3.2105218e-21
3.671513e-21
3.1272995e-21
4.195188e-21
4.115317e-21
3.3287876e-21
2.9439932e-21
3.64003e-21
2.9729114e-21
2.98608e-21
3.9461725e-21
5.409855e-21
4.2748597e-21
3.1435176e-21
2.1373406e-21
2.3584814e-21
2.398015e-21
2.2899712e-21
2.1013013e-21
2.141071e-21
2.3029593e-21
2.1021495e-21
2.0148244e-21
1.9983908e-21
1.9124553e-21
1.8969614e-21
1.8155502e-21
1.6694458e-21
1.8190077e-21
1.9040858e-21
1.6725382e-21
1.6760923e-21
2.181035e-21
2.6192064e-21
2.215356e-21
1.4896456e-21
1.3921877e-21
1.7241843e-21
1.3327719e-21
1.6031477e-21
2.0026136e-21
1.966654e-21
1.5580474e-21
1.373739e-21
1.752877e-21
1.8042025e-21
1.8611491e-21
1.3897374e-21
1.1727991e-21
1.5318993e-21
1.8568214e-21
1.7657485e-21
1.3645557e-21
1.1723238e-21
1.0581298e-21
9.772496e-22
1.1609102e-21
1.1409574e-21
1.034661e-21
9.73585e-22
9.389243e-22
1.3784092e-21
1.6791779e-21
1.6119046e-21
1.1308433e-21
8.869935e-22
7.729076e-22
9.131534e-22
9.386268e-22
7.5297175e-22
6.445968e-22
1.0250919e-21
1.4281262e-21
1.1298964e-21
7.2941235e-22
7.2258957e-22
1.4539719e-21
1.92396e-21
1.3386527e-21
6.911016e-22
6.008305e-22
1.2110348e-21
1.4466044e-21
7.8102985e-22
4.9656464e-22
1.0012953e-21
1.745669e-21
1.9439536e-21
1.2723873e-21
5.753961e-22
5.9005074e-22
1.0499902e-21
1.2791615e-21
1.0577693e-21
6.1997934e-22
4.0158059e-22
5.2434047e-22
8.591178e-22
1.1239632e-21
9.282077e-22
4.0791313e-22
4.435328e-22
8.4426383e-22
1.2368603e-21
1.0271166e-21
5.255011e-22
3.0004651e-22
5.3492383e-22
7.904483e-22
7.4509213e-22
4.5548874e-22
2.7052163e-22
2.6417223e-22
2.734126e-22
2.3671088e-22
2.496593e-22
2.183536e-22
2.9671182e-22
3.959103e-22
4.619857e-22
3.8391889e-22
2.7213869e-22
1.8334152e-22
1.751263e-22
2.5099752e-22
2.943778e-22
2.4784652e-22
1.9766307e-22
1.6667686e-22
1.706416e-22
1.5794303e-22
1.465286e-22
1.5168455e-22
1.7343727e-22
2.3597866e-22
2.5786502e-22
1.7854285e-22
1.4257344e-22
1.7177598e-22
2.6390217e-22
3.1457817e-22
2.57566e-22
1.529488e-22
1.22374e-22
1.2537115e-22
1.459871e-22
2.2904275e-22
2.7160276e-22
1.8748487e-22
1.1557108e-22
1.05157203e-22
9.608432e-23
1.03091486e-22
1.0124279e-22
1.0092617e-22
9.5312737e-23
8.1207285e-23
7.56626e-23
8.154049e-23
8.5815956e-23
7.704656e-23
8.879153e-23
1.0623301e-22
1.9293041e-22
2.7013818e-22
2.5037688e-22
1.6690581e-22
9.687863e-23
7.339255e-23
1.5259748e-22
3.3509953e-22
4.783928e-22
4.8807927e-22
3.9867415e-22
2.758783e-22
1.5500192e-22
7.504797e-23
4.9322023e-23
6.079576e-23
5.8790206e-23
6.2160333e-23
6.154147e-23
6.063964e-23
6.6229606e-23
6.211483e-23
3.5128235e-23
3.1361134e-23
4.3593694e-23
4.7493472e-23
4.6876734e-23
3.501392e-23
2.8576303e-23
2.5599571e-23
2.7690403e-23
2.7515216e-23
2.925873e-23
2.952887e-23
2.637805e-23
2.4946013e-23
3.309826e-23
4.7280542e-23
6.769593e-23
7.722152e-23
7.3233366e-23
6.377308e-23
4.7807117e-23
3.2255462e-23
2.3305062e-23
2.2134695e-23
2.4435031e-23
2.827332e-23
3.2898712e-23
4.6356225e-23
5.906724e-23
6.539606e-23
6.118154e-23
4.638443e-23
2.8779186e-23
2.0966052e-23
1.6621031e-23
2.0184466e-23
2.1172853e-23
2.5615282e-23
1.860647e-23
1.531661e-23
1.8659785e-23
2.3861136e-23
2.9042173e-23
3.0359918e-23
2.4148265e-23
1.811954e-23
1.786078e-23
1.45347e-23
1.27543165e-23
1.2297485e-23
1.4158152e-23
1.3862855e-23
1.2490745e-23
1.7722808e-23
2.6787312e-23
4.839572e-23
6.616594e-23
6.873052e-23
6.419981e-23
4.5655625e-23
2.7630263e-23
1.5870742e-23
1.0364323e-23
1.0859419e-23
2.275126e-23
3.9849356e-23
5.8602546e-23
7.3448693e-23
8.164357e-23
8.7210315e-23
8.717186e-23
8.2470245e-23
7.420484e-23
6.672379e-23
6.089793e-23
5.622446e-23
5.506092e-23
5.68797e-23
5.717414e-23
5.4877204e-23
4.6753628e-23
3.9788027e-23
3.5634365e-23
3.46277e-23
3.9641665e-23
4.6887516e-23
5.6544155e-23
6.816542e-23
8.715932e-23
1.1505164e-22
1.580352e-22
2.1954365e-22
3.0536026e-22
4.1766815e-22
5.627352e-22
7.6504614e-22
1.0452437e-21
1.4009241e-21
1.8477074e-21
2.4538991e-21
3.2986565e-21
4.473746e-21
6.171814e-21
8.663995e-21
1.2272936e-20
1.7515317e-20
2.5250952e-20
3.6900715e-20
5.455372e-20
8.1282276e-20
1.2216837e-19
1.8524716e-19
2.8292997e-19
4.3536987e-19
6.7523684e-19
1.0550565e-18
1.6604347e-18
2.6320875e-18
4.2022893e-18
6.7570118e-18
1.0941515e-17
1.7841383e-17
2.9293807e-17
4.8428513e-17
8.060779e-17
1.3506783e-16
2.2781533e-16
3.8676123e-16
6.6085415e-16
1.1364162e-15
1.9665498e-15
3.4243962e-15
5.999979e-15
1.0577322e-14
1.8760306e-14
3.3474756e-14
6.00874e-14
1.08496355e-13
1.9705665e-13
3.5998965e-13
6.614393e-13
1.2222781e-12
2.271482e-12
4.245085e-12
7.977704e-12
1.5075028e-11
2.8641393e-11
5.4706642e-11
1.0503305e-10
2.0264349e-10
3.9268694e-10
7.6360296e-10
1.4874268e-09
2.892559e-09
5.5791194e-09
1.053927e-08
1.9039414e-08
3.1491503e-08
4.4264304e-08
4.6954067e-08
3.0955544e-08
7.66116e-09
4.5269688e-10
1.2519401e-08
2.343401e-08
1.6915914e-08
2.9114333e-09
1.4814983e-09
1.0904248e-08
1.3383714e-08
4.967915e-09
2.3934705e-11
4.946785e-09
8.834913e-09
4.5303787e-09
6.943249e-11
2.4134335e-09
5.639331e-09
3.4494132e-09
1.5905408e-10
1.2731787e-09
3.6008128e-09
2.4553646e-09
1.763365e-10
7.071108e-10
2.3099045e-09
1.7032867e-09
1.605758e-10
3.9939418e-10
1.4833894e-09
1.1725875e-09
1.3816268e-10
2.2169871e-10
9.484433e-10
8.076546e-10
1.1830628e-10
1.1674411e-10
5.9998917e-10
5.57992e-10
1.0251859e-10
5.573189e-11
3.7271686e-10
3.8613324e-10
8.9873595e-11
2.2295832e-11
2.2513347e-10
2.664199e-10
7.905587e-11
6.161477e-12
1.3041965e-10
1.8194257e-10
6.90123e-11
4.681674e-13
7.098824e-11
1.2176177e-10
5.911073e-11
5.16081e-13
3.5121114e-11
7.882431e-11
4.912757e-11
3.1070441e-12
1.4859239e-11
4.852084e-11
3.917725e-11
6.15504e-12
4.6768258e-12
2.7723063e-11
2.96105e-11
8.432569e-12
6.64843e-13
1.4160303e-11
2.0894146e-11
9.3843405e-12
4.531816e-14
6.0381127e-12
1.3484451e-11
8.96728e-12
8.9248455e-13
1.8324769e-12
7.7114235e-12
7.492302e-12
1.969936e-12
2.1209399e-13
3.694881e-12
5.459246e-12
2.615286e-12
4.6693996e-14
1.3129435e-12
3.3936955e-12
2.6251588e-12
4.574601e-13
2.3329776e-13
1.7076689e-12
2.1170856e-12
8.650626e-13
1.4506884e-15
6.1186993e-13
1.3708459e-12
9.975626e-13
1.6020754e-13
9.971597e-14
6.746086e-13
8.389276e-13
3.605427e-13
2.996436e-15
2.1197485e-13
5.2592154e-13
4.2419846e-13
9.323965e-14
1.8671473e-14
2.2703229e-13
3.3696364e-13
1.8406529e-13
1.2592463e-14
4.8427008e-14
1.8271867e-13
1.9062207e-13
6.9789226e-14
2.3690307e-21
5.6551355e-14
1.2587495e-13
9.968165e-14
2.3281148e-14
3.1252443e-15
4.8914493e-14
7.9221494e-14
4.9993033e-14
6.848773e-15
5.8912624e-15
3.6172854e-14
4.7453564e-14
2.4893763e-14
1.8005545e-15
6.057953e-15
2.4389263e-14
2.7845996e-14
1.27358375e-14
4.561447e-16
4.775296e-15
1.5513781e-14
1.6339586e-14
6.906861e-15
1.438317e-16
3.189203e-15
9.478136e-15
9.708928e-15
4.057465e-15
8.5272144e-17
1.86107e-15
5.596101e-15
5.8650776e-15
2.595156e-15
9.6462574e-17
9.403838e-16
3.1779414e-15
3.58304e-15
1.7826473e-15
1.3827523e-16
3.8853936e-16
1.7065047e-15
2.1814787e-15
1.2786962e-15
1.9213889e-16
1.10232795e-16
8.3729583e-16
1.2920752e-15
9.243884e-16
2.3841407e-16
9.430471e-18
3.513005e-16
7.184873e-16
6.4809053e-16
2.597075e-16
6.683611e-18
1.0846219e-16
3.552851e-16
4.2256181e-16
2.4676293e-16
4.214392e-17
1.4449254e-17
1.4182014e-16
2.4315984e-16
2.017623e-16
7.552231e-17
1.2823363e-18
3.6108743e-17
1.138009e-16
1.3773093e-16
8.6088816e-17
1.9171972e-17
1.6739009e-18
3.6377233e-17
7.3658144e-17
7.147784e-17
3.5583265e-17
4.240094e-18
4.1168266e-18
2.6534313e-17
4.2933202e-17
3.6383566e-17
1.547058e-17
9.754757e-19
3.7175656e-18
1.6344166e-17
2.384451e-17
1.9038889e-17
7.63184e-18
3.7069582e-19
2.2093444e-18
8.970381e-18
1.29400545e-17
1.0481136e-17
4.4414144e-18
3.2377126e-19
9.13811e-19
4.393913e-18
6.8430303e-18
6.031499e-18
2.9811428e-18
4.3761577e-19
2.0502576e-19
1.8244225e-18
3.4114407e-18
3.497804e-18
2.1477238e-18
5.931312e-19
8.1317085e-22
5.495775e-19
1.4878473e-18
1.9151446e-18
1.5167651e-18
6.88182e-19
8.449093e-20
6.555741e-20
4.8253514e-19
8.933897e-19
9.526126e-19
6.4705795e-19
2.3716098e-19
1.0703082e-20
6.8890406e-20
2.9185582e-19
4.69028e-19
4.6591175e-19
3.0216846e-19
1.0606872e-19
3.9336154e-21
3.450342e-20
1.4079656e-19
2.2783266e-19
2.3322735e-19
1.612364e-19
6.6098206e-20
6.713789e-21
8.100431e-21
5.2608697e-20
9.977989e-20
1.1606052e-19
9.384855e-20
5.0644828e-20
1.3277753e-20
4.7875858e-24
1.1571655e-20
3.4432256e-20
5.1509254e-20
5.2616752e-20
3.871596e-20
1.9015684e-20
4.1568144e-21
1.2254194e-22
6.00526e-21
1.5939955e-20
2.3221144e-20
2.39453e-20
1.8401709e-20
1.002354e-20
2.9991695e-21
4.5216586e-23
1.3990602e-21
5.2351485e-21
8.968242e-21
1.0620038e-20
9.595872e-21
6.6521437e-21
3.2618486e-21
8.0780553e-22
4.652521e-25
7.187748e-22
2.2420252e-21
3.6792953e-21
4.3699827e-21
4.097965e-21
3.0777803e-21
1.774615e-21
6.697904e-22
7.574209e-23
5.7856485e-23
4.653212e-22
1.0331508e-21
1.5005678e-21
1.6993109e-21
1.5890051e-21
1.2412556e-21
7.9066557e-22
3.7709283e-22
1.00709555e-22
6.446885e-25
5.734889e-23
2.1180085e-22
3.9149746e-22
5.337806e-22
6.004811e-22
5.822342e-22
4.9396945e-22
3.6514698e-22
2.2895813e-22
1.1343607e-22
3.6034317e-23
2.197037e-24
7.124952e-24
3.9304894e-23
8.461587e-23
1.2984002e-22
1.6501049e-22
1.8450774e-22
1.8693304e-22
1.7420125e-22
1.5033676e-22
1.2024171e-22
8.865119e-23
5.94179e-23
3.5168707e-23
1.7267583e-23
5.9723105e-24
7.0860944e-25
3.8351893e-25
3.6896164e-24
9.3262055e-24
1.6146564e-23
2.32506e-23
3.0002318e-23
3.6008742e-23
4.1082614e-23
4.5207044e-23
4.8482713e-23
5.1065106e-23
5.315528e-23
5.498272e-23
5.677369e-23
5.875468e-23
6.114303e-23
6.4168786e-23
6.809889e-23
7.3225995e-23
7.989163e-23
8.8535134e-23
9.973518e-23
1.1425036e-22
1.3307743e-22
1.5755635e-22
1.8952799e-22
2.3154168e-22
2.870997e-22
3.6105924e-22
4.602821e-22
5.944833e-22
7.7743507e-22
1.0288523e-21
1.3772127e-21
1.8638891e-21
2.549427e-21
3.523136e-21
4.917487e-21
6.9303744e-21
9.859726e-21
1.415698e-20
2.0510446e-20
2.997686e-20
4.4190018e-20
6.5692746e-20
9.8468575e-20
1.4879963e-19
2.2665803e-19
3.4797534e-19
5.383667e-19
8.392819e-19
1.3182231e-18
2.0858116e-18
3.3244635e-18
5.3368676e-18
8.62838e-18
1.404787e-17
2.3029954e-17
3.801374e-17
6.317109e-17
1.0568017e-16
1.7796464e-16
3.016529e-16
5.1461815e-16
8.8356294e-16
1.5266405e-15
2.6543327e-15
4.6437294e-15
8.1742084e-15
1.4476611e-14
2.5793271e-14
4.623177e-14
8.335786e-14
1.5118268e-13
2.757945e-13
5.060293e-13
9.337944e-13
1.7329722e-12
3.234264e-12
6.0698894e-12
1.1454687e-11
2.1734683e-11
4.146221e-11
7.951014e-11
1.5323905e-10
2.9670671e-10
5.7675403e-10
1.1240374e-09
2.1907105e-09
4.2486175e-09
8.12079e-09
1.5019744e-08
2.5978414e-08
3.9561638e-08
4.8055867e-08
3.9853443e-08
1.6614788e-08
5.582791e-10
6.2830203e-09
2.0701561e-08
2.1762146e-08
8.039178e-09
3.3134092e-12
6.9520207e-09
1.4110128e-08
8.946056e-09
7.056846e-10
2.292268e-09
8.273376e-09
6.9833694e-09
1.1330911e-09
8.3419416e-10
4.9057234e-09
4.912767e-09
1.0699274e-09
3.4318495e-10
2.9913476e-09
3.3353755e-09
8.513783e-10
1.5451418e-10
1.8604529e-09
2.2366744e-09
6.3633787e-10
7.106706e-11
1.1651008e-09
1.4944198e-09
4.6791576e-10
3.0301466e-11
7.2578205e-10
9.977564e-10
3.4598585e-10
1.01979284e-11
4.446839e-10
6.6550954e-10
2.5952554e-10
1.6813937e-12
2.6481453e-10
4.422593e-10
1.975779e-10
7.2263843e-14
1.510263e-10
2.913156e-10
1.5190359e-10
2.3651198e-12
8.075003e-11
1.8874233e-10
1.1695785e-10
6.3876235e-12
3.909525e-11
1.189956e-10
8.9250274e-11
1.0557021e-11
1.6048126e-11
7.19317e-11
6.6714766e-11
1.380662e-11
4.77164e-12
4.081847e-11
4.8215456e-11
1.5543563e-11
5.495021e-13
2.1045072e-11
3.3180098e-11
1.5597109e-11
1.2922394e-13
9.307015e-12
2.1326146e-11
1.4145009e-11
1.3180212e-12
3.114932e-12
1.2458657e-11
1.1615881e-11
2.7315101e-12
5.2346197e-13
6.3309505e-12
8.570494e-12
3.6228867e-12
6.0239687e-15
2.569996e-12
5.573518e-12
3.7408696e-12
4.1548576e-13
6.6787943e-13
3.0755442e-12
3.1857104e-12
9.787534e-13
3.3074837e-14
1.3297526e-12
2.25429e-12
1.2820435e-12
8.2292036e-14
3.6466205e-13
1.2867778e-12
1.2183585e-12
3.405457e-13
2.0847409e-14
5.4155286e-13
8.906673e-13
5.126279e-13
3.8927036e-14
1.2661371e-13
4.889426e-13
4.9808215e-13
1.6585674e-13
1.3296959e-15
1.7674493e-13
3.4452261e-13
2.3791567e-13
3.694606e-14
2.3982188e-14
1.6195171e-13
2.090734e-13
1.0008772e-13
3.4134077e-15
3.9183788e-14
1.2072174e-13
1.1551048e-13
3.783814e-14
2.343737e-16
3.922883e-14
8.003658e-14
6.0478146e-14
1.3105326e-14
2.4375535e-15
3.1462073e-14
4.96204e-14
3.106068e-14
4.2932576e-15
3.5582833e-15
2.2281786e-14
2.9733543e-14
1.6160423e-14
1.4258243e-15
3.2567409e-15
1.460471e-14
1.7618836e-14
8.768422e-15
5.506135e-16
2.3470828e-15
9.0769635e-15
1.0475056e-14
5.0691424e-15
2.9482948e-16
1.4223414e-15
5.4027645e-15
6.286862e-15
3.1488437e-15
2.3269522e-16
7.261226e-16
3.0734944e-15
3.79831e-15
2.0860514e-15
2.379765e-16
2.9397192e-16
1.6462322e-15
2.2824224e-15
1.4425096e-15
2.6522415e-16
7.6421615e-17
8.034309e-16
1.3347849e-15
1.0097921e-15
2.8887323e-16
3.6030714e-18
3.3456973e-16
7.347086e-16
6.904728e-16
2.9168924e-16
1.1109171e-17
1.02108465e-16
3.6129187e-16
4.428059e-16
2.653842e-16
4.8190732e-17
1.31346454e-17
1.4456008e-16
2.5305911e-16
2.1218357e-16
8.015831e-17
1.4552475e-18
3.75755e-17
1.1911572e-16
1.4393812e-16
8.9292427e-17
1.932958e-17
2.0424628e-18
3.9221328e-17
7.7788243e-17
7.412292e-17
3.578853e-17
3.73805e-18
5.0764802e-18
2.912529e-17
4.5393134e-17
3.716474e-17
1.4878478e-17
6.344827e-19
4.725348e-18
1.8210844e-17
2.5196249e-17
1.9123196e-17
6.997043e-18
1.6088086e-19
2.9695933e-18
1.0200593e-17
1.3719371e-17
1.0405789e-17
3.9381506e-18
1.3799937e-19
1.375896e-18
5.1762713e-18
7.354555e-18
5.99139e-18
2.6268175e-18
2.390354e-19
4.1753663e-19
2.2988582e-18
3.785073e-18
3.539039e-18
1.9340984e-18
3.990435e-19
3.793664e-20
8.014246e-19
1.759531e-18
2.0209652e-18
1.4294669e-18
5.360028e-19
2.4616863e-20
1.5572264e-19
6.5212903e-19
1.0192236e-18
9.623827e-19
5.663317e-19
1.5417691e-19
1.2440824e-22
1.3876922e-19
3.8887586e-19
5.2768064e-19
4.5794177e-19
2.5063143e-19
6.0429615e-20
9.263232e-22
7.477608e-20
1.9464286e-19
2.6069409e-19
2.2993905e-19
1.3290099e-19
3.8243778e-20
7.4276e-23
2.5995157e-20
8.184687e-20
1.21947e-19
1.2005643e-19
8.155781e-20
3.3515555e-20
3.6655313e-21
3.560804e-21
2.5054771e-20
4.9202913e-20
5.954518e-20
5.105207e-20
3.0569746e-20
1.044273e-20
4.574927e-22
2.9754947e-21
1.32054344e-20
2.3288605e-20
2.7123356e-20
2.3192732e-20
1.4370034e-20
5.5023457e-21
5.267361e-22
6.8922325e-22
4.500768e-21
9.046094e-21
1.16897665e-20
1.1264397e-20
8.298147e-21
4.4016663e-21
1.2974326e-21
1.9491466e-23
6.0331865e-22
2.2862246e-21
4.0081263e-21
4.9243572e-21
4.7096288e-21
3.5764042e-21
2.0696115e-21
7.7561107e-22
8.284491e-23
7.565229e-23
5.6950325e-22
1.2391654e-21
1.7686232e-21
1.962051e-21
1.7853914e-21
1.3412568e-21
8.027947e-22
3.3971158e-22
6.3408766e-23
4.4893873e-24
1.215828e-22
3.3053333e-22
5.395035e-22
6.7767206e-22
7.105947e-22
6.4124804e-22
5.002828e-22
3.311447e-22
1.7556097e-22
6.3221635e-23
7.227749e-24
4.8910062e-24
4.2189512e-23
9.9752875e-23
1.5849975e-22
2.0369859e-22
2.269713e-22
2.263865e-22
2.0518075e-22
1.6978559e-22
1.2777744e-22
8.6189655e-23
5.040981e-23
2.3695706e-23
7.208472e-24
3.9544325e-25
1.5437531e-24
8.3542665e-24
1.843232e-23
2.9641758e-23
4.031074e-23
4.9306432e-23
5.6011674e-23
6.0240233e-23
6.212411e-23
6.199846e-23
6.0300654e-23
5.7491785e-23
5.40028e-23
5.0203376e-23
4.6388852e-23
4.278041e-23
3.9533493e-23
3.6750688e-23
3.449623e-23
3.281026e-23
3.1721795e-23
3.126062e-23
3.1467955e-23
3.2406715e-23
3.417233e-23
3.6905463e-23
4.0808005e-23
4.6164525e-23
5.3371855e-23
6.2980875e-23
7.5755745e-23
9.2758714e-23
1.1547255e-22
1.4597794e-22
1.8721204e-22
2.4334776e-22
3.2035366e-22
4.2682444e-22
5.7522344e-22
7.8374964e-22
1.0791631e-21
1.5010852e-21
2.1085884e-21
2.990352e-21
4.2804173e-21
6.182777e-21
9.009987e-21
1.3244165e-20
1.963398e-20
2.9349767e-20
4.4233047e-20
6.720058e-20
1.0290224e-19
1.5879859e-19
2.4693683e-19
3.8689491e-19
6.1068997e-19
9.710105e-19
1.5551044e-18
2.5083394e-18
4.074406e-18
6.6643196e-18
1.09755006e-17
1.8198453e-17
3.037754e-17
5.10442e-17
8.633445e-17
1.4697235e-16
2.518091e-16
4.341736e-16
7.5332733e-16
1.3152414e-15
2.3104823e-15
4.0836674e-15
7.261468e-15
1.2989759e-14
2.3375294e-14
4.2312626e-14
7.7040384e-14
1.4108494e-13
2.59858e-13
4.8135367e-13
8.966953e-13
1.679802e-12
3.1643412e-12
5.9937606e-12
1.1415182e-11
2.1857727e-11
4.207533e-11
8.1412814e-11
1.5830878e-10
3.0923875e-10
6.063762e-10
1.1919071e-09
2.3421516e-09
4.576734e-09
8.801798e-09
1.6331143e-08
2.8168136e-08
4.2299206e-08
4.9685873e-08
3.85008e-08
1.36865355e-08
4.4002618e-11
9.037506e-09
2.312129e-08
2.0630486e-08
5.547204e-09
4.5644605e-10
9.577946e-09
1.4619236e-08
6.8681194e-09
4.9735372e-11
4.1995745e-09
9.2747685e-09
5.544071e-09
2.3292568e-10
2.1351392e-09
5.888959e-09
3.925128e-09
2.456788e-10
1.2420018e-09
3.805682e-09
2.64198e-09
1.8401468e-10
7.8720075e-10
2.4913893e-09
1.7434001e-09
1.2231485e-10
5.182259e-10
1.6405146e-09
1.1454043e-09
7.964301e-11
3.4225278e-10
1.080875e-09
7.563948e-10
5.398413e-11
2.216169e-10
7.100902e-10
5.0514004e-10
3.9497034e-11
1.383914e-10
4.6382773e-10
3.4222317e-10
3.1538563e-11
8.205591e-11
3.0023797e-10
2.3524035e-10
2.7174022e-11
4.527669e-11
1.9169542e-10
1.6361644e-10
2.4656117e-11
2.2499615e-11
1.1990291e-10
1.14525396e-10
2.2933893e-11
9.447818e-12
7.274696e-11
8.005105e-11
2.1367031e-11
2.867097e-12
4.2196704e-11
5.532716e-11
1.958537e-11
3.3355618e-13
2.2892495e-11
3.7358918e-11
1.7421866e-11
8.726211e-14
1.1205991e-11
2.4283532e-11
1.4870877e-11
8.940412e-13
4.626837e-12
1.4906925e-11
1.2050614e-11
1.936766e-12
1.3732562e-12
8.412309e-12
9.1603305e-12
2.731487e-12
1.552019e-13
4.1802443e-12
6.431843e-12
3.0590112e-12
3.8056215e-14
1.6850535e-12
4.0789763e-12
2.9017433e-12
3.682778e-13
4.4728172e-13
2.252773e-12
2.3788519e-12
7.3071096e-13
2.708697e-14
1.0114318e-12
1.6782524e-12
9.14348e-13
4.3813043e-14
3.1304763e-13
9.907784e-13
8.711508e-13
2.0510157e-13
3.4239294e-14
4.568288e-13
6.622404e-13
3.2852456e-13
1.011071e-14
1.3671671e-13
3.9609272e-13
3.4250486e-13
8.2997126e-14
1.1174148e-14
1.7153256e-13
2.619734e-13
1.4295352e-13
8.9379755e-15
4.0566807e-14
1.4568354e-13
1.453663e-13
4.794918e-14
3.9176142e-16
5.127996e-14
1.0081388e-13
7.118762e-14
1.2121733e-14
5.8756782e-15
4.5440302e-14
6.1725676e-14
3.1856747e-14
1.8239523e-15
9.388588e-15
3.364241e-14
3.51458e-14
1.3444772e-14
2.7616556e-17
9.314328e-15
2.2482245e-14
1.9307447e-14
5.5537477e-15
1.5902828e-16
7.424316e-15
1.416606e-14
1.0549139e-14
2.3608352e-15
3.5027181e-16
5.2125705e-15
8.650593e-15
5.8791765e-15
1.1014105e-15
3.3753427e-16
3.3600207e-15
5.206715e-15
3.4042769e-15
6.0069104e-16
2.22225e-16
2.0234694e-15
3.113353e-15
2.06599e-15
3.9433254e-16
1.0543592e-16
1.1392375e-15
1.8476052e-15
1.3101514e-15
3.0383773e-16
3.0573135e-17
5.900077e-16
1.0770233e-15
8.55661e-16
2.5816945e-16
1.5725461e-18
2.6988323e-16
6.0398965e-16
5.6191393e-16
2.2631497e-16
5.1647586e-18
9.948864e-17
3.1470898e-16
3.5953716e-16
1.9392699e-16
2.4103315e-17
2.2855143e-17
1.4362322e-16
2.1539533e-16
1.557315e-16
4.347102e-17
5.7731323e-19
5.105983e-17
1.1439691e-16
1.1273926e-16
5.3521104e-17
4.5299454e-18
1.0132038e-17
4.9190333e-17
7.017351e-17
5.0809162e-17
1.5277444e-17
1.7457713e-20
1.3929829e-17
3.4772327e-17
3.7875237e-17
2.145092e-17
3.7947436e-18
1.0340538e-18
1.15741055e-17
2.1195175e-17
1.9482426e-17
9.1874694e-18
9.199356e-19
1.3606997e-18
7.653178e-18
1.2021151e-17
1.0092429e-17
4.3137643e-18
2.9380517e-19
9.628134e-19
4.406148e-18
6.5868624e-18
5.4414575e-18
2.3448062e-18
1.8017366e-19
4.599168e-19
2.2586156e-18
3.5173238e-18
3.0713719e-18
1.4801159e-18
1.9446251e-19
1.3166857e-19
1.0011427e-18
1.7932957e-18
1.7715491e-18
1.0300873e-18
2.4673771e-19
6.944681e-21
3.4429692e-19
8.247828e-19
9.901193e-19
7.278456e-19
2.896017e-19
1.8875094e-20
6.407628e-20
3.0315048e-19
4.9219506e-19
4.7589753e-19
2.866021e-19
8.1498816e-20
3.74995e-24
6.4401245e-20
1.8740082e-19
2.5780991e-19
2.2531906e-19
1.237815e-19
2.9878584e-20
4.6524916e-22
3.7066312e-20
9.6164645e-20
1.281446e-19
1.1206762e-19
6.373654e-20
1.755565e-20
4.252569e-25
1.3967547e-20
4.1766323e-20
6.0681265e-20
5.83791e-20
3.8460848e-20
1.4886836e-20
1.2177465e-21
2.4319667e-21
1.3708008e-20
2.5336524e-20
2.9458865e-20
2.4253679e-20
1.3711082e-20
4.1247188e-21
4.651159e-23
2.106574e-21
7.48797e-21
1.2187607e-20
1.3421794e-20
1.08472766e-20
6.2200973e-21
2.032231e-21
7.122017e-23
6.6062817e-22
2.8084888e-21
4.9777718e-21
5.952224e-21
5.352169e-21
3.6336154e-21
1.6927834e-21
3.5503237e-22
1.2432962e-23
5.403806e-22
1.4643453e-21
2.242813e-21
2.514521e-21
2.2117392e-21
1.5237045e-21
7.61835e-22
2.062928e-22
8.783991e-25
1.2652639e-22
4.44528e-22
7.755e-22
9.750865e-22
9.787753e-22
8.0699506e-22
5.3860297e-22
2.7019405e-22
7.908399e-23
1.7748769e-24
3.1228028e-23
1.2901497e-22
2.4454458e-22
3.3338342e-22
3.691632e-22
3.470985e-22
2.8026994e-22
1.9169223e-22
1.0558353e-22
4.0524826e-23
5.8902007e-24
1.6254131e-24
2.0513714e-23
5.165407e-23
8.3932396e-23
1.0862812e-22
1.2076983e-22
1.1927641e-22
1.0619933e-22
8.549777e-23
6.1750915e-23
3.9102415e-23
2.0587534e-23
7.865068e-24
1.284313e-24
1.7156814e-25
3.2142366e-24
8.8416035e-24
1.553536e-23
2.2038257e-23
2.745843e-23
3.1286075e-23
3.3348804e-23
3.3732954e-23
3.2694182e-23
3.0574444e-23
2.7734933e-23
2.4508963e-23
2.1174199e-23
1.7940952e-23
1.4952511e-23
1.2292858e-23
9.998248e-24
8.06981e-24
6.485267e-24
5.2087736e-24
4.1985268e-24
3.412154e-24
2.8102113e-24
2.3581579e-24
2.0272524e-24
1.7947365e-24
1.6436182e-24
1.5623051e-24
1.5442606e-24
1.5878288e-24
1.6963397e-24
1.87861e-24
2.1499668e-24
2.5340076e-24
3.065341e-24
3.793745e-24
4.7903602e-24
6.1568673e-24
8.039088e-24
1.06472446e-23
1.4286235e-23
1.9401158e-23
2.6646156e-23
3.6989158e-23
5.1872256e-23
7.345872e-23
1.05015947e-22
1.5151277e-22
2.205566e-22
3.2387314e-22
4.7965737e-22
7.163305e-22
1.0785808e-21
1.6371357e-21
2.5046665e-21
3.861823e-21
6.0001093e-21
9.3929e-21
1.4813801e-20
2.3534983e-20
3.76616e-20
6.0698714e-20
9.851817e-20
1.6101665e-19
2.64976e-19
4.3902394e-19
7.3228785e-19
1.2295742e-18
2.07814e-18
3.535182e-18
6.0525186e-18
1.0428441e-17
1.8081483e-17
3.1546657e-17
5.5379788e-17
9.7814385e-17
1.7381334e-16
3.1071948e-16
5.587736e-16
1.0107951e-15
1.8391952e-15
3.3659596e-15
6.1956335e-15
1.14693275e-14
2.1352376e-14
3.9975222e-14
7.525809e-14
1.4246727e-13
2.711805e-13
5.189977e-13
9.986621e-13
1.9319698e-12
3.757441e-12
7.346395e-12
1.4438571e-11
2.8524143e-11
5.66365e-11
1.130071e-10
2.2652479e-10
4.5592202e-10
9.2038677e-10
1.8596916e-09
3.745137e-09
7.453644e-09
1.4415255e-08